VARIABLES="X","Y","Z","p","rho","u","v","w"
ZONE T="Element0"
Nodes=8464, Elements=4098, ZONETYPE=FEBRICK
DATAPACKING=BLOCK
VARLOCATION = ([4,5,6,7,8] = CELLCENTERED)
-0.972399
-0.734448
-0.493573
-0.250349
-0.005356
0.240821
0.487597
0.734382
0.980587
1.225625
1.468910
1.709862
1.947905
2.182468
2.412990
2.638917
2.859707
3.074829
3.283764
3.486007
3.681071
-1.533744
-1.291791
-1.045582
-0.795704
-0.542755
-0.287339
-0.030064
0.228455
0.487602
0.746757
1.005304
1.262623
1.518101
1.771127
2.021095
2.267408
2.509475
2.746714
2.978557
3.204445
3.423833
3.636193
3.841011
4.037791
4.226054
-1.635099
-1.381017
-1.122464
-0.860057
-0.594424
-0.326198
-0.056021
0.215463
0.487606
0.759758
1.031269
1.301490
1.569777
1.835487
2.097984
2.356640
2.610835
2.859959
3.103413
3.340611
3.570982
3.793969
4.009035
4.215657
4.413334
-1.741575
-1.474751
-1.203230
-0.927661
-0.648703
-0.367021
-0.083290
0.201814
0.487610
0.773414
1.058545
1.342321
1.624063
1.903097
2.178756
2.450379
2.717315
2.978924
3.234575
3.483655
3.725563
3.959715
4.185546
4.402508
4.610075
-1.853428
-1.573219
-1.288075
-0.998680
-0.705723
-0.409906
-0.111936
0.187476
0.487613
0.787760
1.087198
1.385212
1.681089
1.974121
2.263607
2.548852
2.829172
3.103896
3.372361
3.633923
3.887950
4.133831
4.370970
4.598794
4.816750
5.024310
5.220967
5.406243
5.579686
-1.970927
-1.676658
-1.377204
-1.073283
-0.765622
-0.454957
-0.142029
0.172412
0.487616
0.802829
1.117297
1.430269
1.740994
2.048730
2.352740
2.652295
2.946676
3.235176
3.517102
3.791775
4.058535
4.316736
4.565754
4.804989
5.033859
5.251808
5.458308
5.652855
5.834974
6.004220
6.160180
6.302471
6.430743
6.544681
6.644005
6.728468
6.797864
6.852019
6.890799
6.914105
6.921882
6.914105
6.890799
6.852019
6.797864
6.728468
6.644005
6.544681
-2.397212
-2.094357
-1.785317
-1.470831
-1.151653
-0.828545
-0.502281
-0.173641
0.156589
0.487619
0.818659
1.148915
1.477598
1.803922
2.127104
2.446371
2.760957
3.070108
3.373081
3.669147
3.957594
4.237727
4.508870
4.770369
5.021589
5.261923
5.490788
5.707626
5.911911
6.103145
6.280859
6.444621
6.594028
6.728714
6.848349
6.952638
7.041323
7.114186
7.171047
7.211764
7.236236
7.244400
7.236236
7.211764
7.171047
7.114186
7.041323
6.952638
6.848349
6.728714
6.594028
-2.542072
-2.224014
-1.899458
-1.569182
-1.233976
-0.894642
-0.551993
-0.206848
0.139967
0.487622
0.835286
1.182127
1.527315
1.870023
2.209431
2.544726
2.875102
3.199768
3.517943
3.828862
4.131778
4.425960
4.710698
4.985305
5.249116
5.501493
5.741824
5.969523
6.184038
6.384845
6.571455
6.743412
6.900295
7.041719
7.167338
7.276842
7.369961
7.446467
7.506171
7.548923
7.574617
7.583190
7.574617
7.548923
7.506171
7.446467
7.369961
7.276842
7.167338
7.041719
6.900295
6.743412
6.571455
6.384845
-4.511599
-4.234642
-3.946362
-3.647454
-3.338633
-3.020640
-2.694238
-2.360210
-2.019357
-1.672493
-1.320451
-0.964074
-0.604213
-0.241731
0.122505
0.487624
0.852752
1.217014
1.579539
1.939459
2.295911
2.648041
2.995003
3.335966
3.670111
3.996633
4.314747
4.623686
4.922705
5.211082
5.488120
5.753147
6.005521
6.244629
6.469890
6.680754
6.876709
7.057274
7.222010
7.370511
7.502415
7.617398
7.715176
7.795508
7.858197
7.903087
7.930067
7.939067
7.930067
7.903087
7.858197
7.795508
7.715176
7.617398
7.502415
7.370511
7.222010
7.057274
6.876709
6.680754
-4.762656
-4.471806
-4.169062
-3.855151
-3.530828
-3.196870
-2.854078
-2.503275
-2.145302
-1.781015
-1.411288
-1.037006
-0.659066
-0.278373
0.104164
0.487626
0.871098
1.253660
1.634397
2.012395
2.386751
2.756565
3.120950
3.479033
3.829952
4.172863
4.506942
4.831383
5.145403
5.448245
5.739175
6.017490
6.282516
6.533607
6.770155
6.991584
7.197354
7.386962
7.559947
7.715883
7.854389
7.975126
8.077798
8.162149
8.227975
8.275110
8.303439
8.312891
8.303439
8.275110
8.227975
8.162149
8.077798
7.975126
7.854389
7.715883
7.559947
7.386962
7.197354
6.991584
-5.026371
-4.720927
-4.402988
-4.073319
-3.732713
-3.381984
-3.021976
-2.653553
-2.277596
-1.895008
-1.506704
-1.113617
-0.716686
-0.316862
0.084897
0.487628
0.890369
1.292153
1.692019
2.089009
2.482170
2.870560
3.253247
3.629312
3.997851
4.357978
4.708826
5.049550
5.379328
5.697363
6.002887
6.295160
6.573474
6.837154
7.085559
7.318085
7.534164
7.733272
7.914920
8.078667
8.224109
8.350890
8.458701
8.547276
8.616395
8.665890
8.695637
8.705561
8.695637
8.665890
8.616395
8.547276
8.458701
8.350890
8.224109
8.078667
7.914920
7.733272
7.534164
7.318085
-5.303379
-4.982605
-4.648706
-4.302485
-3.944773
-3.576430
-3.198338
-2.811405
-2.416559
-2.014746
-1.606930
-1.194088
-0.777209
-0.357292
0.064658
0.487630
0.910611
1.332586
1.752546
2.169483
2.582398
2.990301
3.392211
3.787165
4.174213
4.552423
4.920887
5.278714
5.625043
5.959038
6.279891
6.586826
6.879099
7.156002
7.416861
7.661042
7.887952
8.097037
8.287787
8.459736
8.612463
8.745595
8.858804
8.951814
9.024394
9.076366
9.107602
9.118023
9.107602
9.076366
9.024394
8.951814
8.858804
8.745595
8.612463
8.459736
8.287787
8.097037
7.887952
7.661042
-5.594347
-5.257470
-4.906807
-4.543200
-4.167521
-3.780675
-3.383588
-2.977213
-2.562526
-2.140520
-1.712208
-1.278616
-0.840783
-0.399759
0.043400
0.487632
0.931872
1.375057
1.816123
2.254014
2.687678
3.116076
3.538179
3.952974
4.359463
4.756668
5.143633
5.519427
5.883142
6.233901
6.570856
6.893191
7.200127
7.490918
7.764859
8.021284
8.259570
8.479136
8.679445
8.860010
9.020390
9.160191
9.279071
9.376740
9.452954
9.507529
9.540329
9.551271
9.540329
9.507529
9.452954
9.376740
9.279071
9.160191
9.020390
8.860010
8.679445
8.479136
8.259570
8.021284
-5.899976
-5.546185
-5.177913
-4.796044
-4.401494
-3.995212
-3.578172
-3.151376
-2.715847
-2.272631
-1.822790
-1.367403
-0.907561
-0.444367
0.021070
0.487633
0.954205
1.419667
1.882903
2.342803
2.798262
3.248189
3.691502
4.127137
4.554047
4.971204
5.377604
5.772269
6.154246
6.522614
6.876482
7.214993
7.537330
7.842710
8.130392
8.399678
8.649913
8.880486
9.090838
9.280455
9.448872
9.595678
9.720515
9.823076
9.903110
9.960419
9.994862
10.006352
9.994862
9.960419
9.903110
9.823076
9.720515
9.595678
9.448872
9.280455
9.090838
8.880486
8.649913
8.399678
-6.221003
-5.849447
-5.462679
-5.061626
-4.647254
-4.220557
-3.782560
-3.334313
-2.876894
-2.411398
-1.938944
-1.460663
-0.977703
-0.491222
-0.002385
0.487634
0.977663
1.466525
1.953048
2.436065
2.914418
3.386957
3.852549
4.310075
4.758434
5.196548
5.623363
6.037850
6.439009
6.825872
7.197505
7.553008
7.891522
8.212226
8.514341
8.797136
9.059921
9.302059
9.522958
9.722080
9.898941
10.053106
10.184199
10.291901
10.375945
10.436125
10.472294
10.484360
10.472294
10.436125
10.375945
10.291901
10.184199
10.053106
9.898941
9.722080
9.522958
9.302059
9.059921
8.797136
-6.558202
-6.167986
-5.761789
-5.340588
-4.905395
-4.457254
-3.997244
-3.526467
-3.046053
-2.557156
-2.060949
-1.558622
-1.051379
-0.540438
-0.027022
0.487636
1.002302
1.515743
2.026726
2.534025
3.036424
3.532716
4.021709
4.502228
4.973117
5.433245
5.881502
6.316809
6.738116
7.144407
7.534699
7.908051
8.263556
8.600356
8.917632
9.214616
9.490584
9.744867
9.976846
10.185954
10.371682
10.533577
10.671243
10.784342
10.872599
10.935795
10.973776
10.986447
10.973776
10.935795
10.872599
10.784342
10.671243
10.533577
10.371682
10.185954
9.976846
9.744867
9.490584
9.214616
-6.912385
-6.502569
-6.075965
-5.633601
-5.176538
-4.705874
-4.222741
-3.728298
-3.223733
-2.710256
-2.189100
-1.661515
-1.128766
-0.592132
-0.052900
0.487637
1.028182
1.567439
2.104115
2.636920
3.164576
3.685817
4.199389
4.704060
5.198614
5.681863
6.152643
6.609819
7.052289
7.478986
7.888879
8.280976
8.654330
9.008036
9.341237
9.653124
9.942940
10.209980
10.453596
10.673192
10.868236
11.038249
11.182817
11.301587
11.394269
11.460633
11.500519
11.513824
11.500519
11.460633
11.394269
11.301587
11.182817
11.038249
10.868236
10.673192
10.453596
10.209980
9.942940
9.653124
-7.284407
-6.854002
-6.405965
-5.941370
-5.461336
-4.967015
-4.459596
-3.940295
-3.410362
-2.871067
-2.323705
-1.769590
-1.210051
-0.646431
-0.080082
0.487638
1.055366
1.621740
2.185401
2.744996
3.299182
3.846628
4.386018
4.916056
5.435467
5.943003
6.437439
6.917586
7.382285
7.830416
8.260896
8.672684
9.064784
9.436249
9.786176
10.113717
10.418077
10.698518
10.954356
11.184970
11.389797
11.568337
11.720157
11.844884
11.942212
12.011905
12.053789
12.067763
12.053789
12.011905
11.942212
11.844884
11.720157
11.568337
11.389797
11.184970
10.954356
10.698518
10.418077
10.113717
-7.675163
-7.223135
-6.752583
-6.264639
-5.760477
-5.241308
-4.708378
-4.162968
-3.606389
-3.039976
-2.465088
-1.883107
-1.295429
-0.703464
-0.108632
0.487639
1.083918
1.678774
2.270780
2.858515
3.440566
4.015537
4.582045
5.138728
5.684248
6.217293
6.736578
7.240851
7.728899
8.199543
8.651647
9.084117
9.495909
9.886025
10.253521
10.597505
10.917143
11.211658
11.480335
11.722520
11.937624
12.125121
12.284556
12.415539
12.517750
12.590938
12.634923
12.649597
12.634923
12.590938
12.517750
12.415539
12.284556
12.125121
11.937624
11.722520
11.480335
11.211658
10.917143
10.597505
10.253521
9.886025
9.495909
-8.085595
-7.610854
-7.116654
-6.604187
-6.074681
-5.529411
-4.969687
-4.396854
-3.812287
-3.217390
-2.613591
-2.002342
-1.385107
-0.763369
-0.138621
0.487639
1.113908
1.738681
2.360459
2.977750
3.589070
4.192951
4.787942
5.372613
5.945557
6.505394
7.050778
7.580395
8.092967
8.587257
9.062074
9.516268
9.948742
10.358450
10.744399
11.105654
11.441338
11.750637
12.032799
12.287138
12.513036
12.709942
12.877377
13.014930
13.122268
13.199127
13.245318
13.260729
13.245318
13.199127
13.122268
13.014930
12.877377
12.709942
12.513036
12.287138
12.032799
11.750637
11.441338
11.105654
10.744399
10.358450
9.948742
-8.516693
-8.018095
-7.499058
-6.960830
-6.404706
-5.832022
-5.244154
-4.642516
-4.028552
-3.403737
-2.769572
-2.127579
-1.479300
-0.826290
-0.170119
0.487640
1.145407
1.801603
2.454653
3.102988
3.745050
4.379298
5.004207
5.618274
6.220022
6.808002
7.380800
7.937035
8.475366
8.994493
9.493166
9.970178
10.424376
10.854662
11.259993
11.639388
11.991927
12.316753
12.613080
12.880185
13.117421
13.324208
13.500045
13.644501
13.757224
13.837939
13.886449
13.902632
13.886449
13.837939
13.757224
13.644501
13.500045
13.324208
13.117421
12.880185
12.613080
12.316753
11.991927
11.639388
11.259993
10.854662
10.424376
-8.969495
-8.445839
-7.900713
-7.335429
-6.751346
-6.149868
-5.532440
-4.900547
-4.255706
-3.599467
-2.933405
-2.259122
-1.578235
-0.892380
-0.203203
0.487641
1.178493
1.867694
2.553589
3.234531
3.908884
4.575027
5.231359
5.876303
6.508305
7.125845
7.727437
8.311630
8.877017
9.422233
9.945963
10.446940
10.923957
11.375856
11.801546
12.199994
12.570236
12.911373
13.222576
13.503091
13.752234
13.969401
14.154063
14.305769
14.424149
14.508914
14.559857
14.576853
14.559857
14.508914
14.424149
14.305769
14.154063
13.969401
13.752234
13.503091
13.222576
12.911373
12.570236
12.199994
11.801546
11.375856
10.923957
-9.445093
-8.895118
-8.322590
-7.728888
-7.115438
-6.483715
-5.835239
-5.171567
-4.494295
-3.805050
-3.105487
-2.397287
-1.682151
-0.961797
-0.237953
0.487641
1.213244
1.937112
2.657506
3.372697
4.080966
4.780610
5.469948
6.147322
6.811101
7.459690
8.091525
8.705084
9.298888
9.871506
10.421555
10.947705
11.448688
11.923289
12.370362
12.788824
13.177660
13.535927
13.862757
14.157355
14.419007
14.647076
14.841006
15.000327
15.124649
15.213669
15.267168
15.285016
15.267168
15.213669
15.124649
15.000327
14.841006
14.647076
14.419007
14.157355
13.862757
13.535927
13.177660
12.788824
12.370362
11.923289
11.448688
-9.944633
-9.367013
-8.765704
-8.142153
-7.497858
-6.834369
-6.153281
-5.456231
-4.744895
-4.020982
-3.286232
-2.542408
-1.791299
-1.034708
-0.274452
0.487642
1.249744
2.010024
2.766654
3.517818
4.261710
4.996542
5.720547
6.431984
7.129141
7.810340
8.473941
9.118344
9.741998
10.343396
10.921088
11.473680
11.999834
12.498281
12.967813
13.407295
13.815661
14.191922
14.535165
14.844557
15.119346
15.358865
15.562531
15.729850
15.860413
15.953900
16.010086
16.028830
16.010086
15.953900
15.860413
15.729850
15.562531
15.358865
15.119346
14.844557
14.535165
14.191922
13.815661
13.407295
12.967813
12.498281
11.999834
-10.469318
-9.862663
-9.231124
-8.576221
-7.899528
-7.202673
-6.487333
-5.755225
-5.008111
-4.247785
-3.476074
-2.694834
-1.905941
-1.111289
-0.312789
0.487642
1.288082
2.086606
2.881297
3.670245
4.451553
5.223344
5.983761
6.730976
7.463190
8.178641
8.875607
9.552407
10.207412
10.839040
11.445767
12.026130
12.578725
13.102217
13.595340
14.056899
14.485779
14.880939
15.241421
15.566350
15.854939
16.106485
16.320377
16.496096
16.633213
16.731394
16.790400
16.810085
16.790400
16.731394
16.633213
16.496096
16.320377
16.106485
15.854939
15.566350
15.241421
14.880939
14.485779
14.056899
13.595340
13.102217
12.578725
-11.020415
-10.383263
-9.719972
-9.032138
-8.321417
-7.589517
-6.838199
-6.069269
-5.284575
-4.486003
-3.675473
-2.854933
-2.026353
-1.191726
-0.353055
0.487643
1.328349
2.167043
3.001710
3.830343
4.650951
5.461561
6.260223
7.045017
7.814054
8.565482
9.297492
10.008320
10.696253
11.359632
11.996857
12.606388
13.186754
13.736552
14.254453
14.739202
15.189628
15.604637
15.983226
16.324476
16.627558
16.891735
17.116369
17.300911
17.444914
17.548023
17.609991
17.630665
17.609991
17.548023
17.444914
17.300911
17.116369
16.891735
16.627558
16.324476
15.983226
15.604637
15.189628
14.739202
14.254453
13.736552
13.186754
-11.599250
-10.930065
-10.233424
-9.511003
-8.764541
-7.995832
-7.206726
-6.399119
-5.574955
-4.736212
-3.884908
-3.023090
-2.152827
-1.276211
-0.395349
0.487643
1.370643
2.251529
3.128184
3.998500
4.860386
5.711769
6.550601
7.374866
8.182577
8.971792
9.740611
10.487180
11.209700
11.906427
12.575684
13.215853
13.825387
14.402815
14.946740
15.455847
15.928903
16.364761
16.762369
17.120760
17.439064
17.716511
17.952427
18.146236
18.297468
18.405758
18.470837
18.492548
18.470837
18.405758
18.297468
18.146236
17.952427
17.716511
17.439064
17.120760
16.762369
16.364761
15.928903
15.455847
14.946740
14.402815
13.825387
13.215853
-12.207218
-11.504389
-10.772719
-10.013970
-9.229968
-8.422598
-7.593801
-6.745572
-5.879950
-4.999014
-4.104885
-3.199710
-2.285666
-1.364948
-0.439771
0.487644
1.415066
2.340267
3.261023
4.175120
5.080362
5.974570
6.855595
7.721315
8.569650
9.398554
10.206033
10.990141
11.748988
12.480744
13.183644
13.855992
14.496163
15.102612
15.673872
16.208561
16.705387
17.163145
17.580729
17.957123
18.291416
18.582800
18.830563
19.034107
19.192936
19.306662
19.375010
19.397812
19.375010
19.306662
19.192936
19.034107
18.830563
18.582800
18.291416
17.957123
17.580729
17.163145
16.705387
16.208561
15.673872
15.102612
14.496163
13.855992
-12.845786
-12.107618
-11.339157
-10.542252
-9.718820
-8.870842
-8.000359
-7.109462
-6.200294
-5.275043
-4.335933
-3.385220
-2.425190
-1.458152
-0.486429
0.487644
1.461724
2.433471
3.400548
4.360630
5.311409
6.250598
7.175938
8.085202
8.976203
9.846794
10.694880
11.518416
12.315419
13.083966
13.822204
14.528350
15.200701
15.837630
16.437601
16.999161
17.520952
18.001711
18.440273
18.835579
19.186666
19.492687
19.752897
19.966663
20.133471
20.252909
20.324690
20.348635
20.324690
20.252909
20.133471
19.966663
19.752897
19.492687
19.186666
18.835579
18.440273
18.001711
17.520952
16.999161
16.437601
15.837630
15.200701
14.528350
-13.516491
-12.741207
-11.934103
-11.097120
-10.232275
-9.341646
-8.427376
-7.491665
-6.536762
-5.564965
-4.578609
-3.580066
-2.571738
-1.556046
-0.535435
0.487644
1.510731
2.531366
3.547095
4.555476
5.554084
6.540517
7.512403
8.467402
9.403216
10.317593
11.208328
12.073278
12.910357
13.717546
14.492900
15.234547
15.940695
16.609640
17.239765
17.829548
18.377562
18.882479
19.343079
19.758245
20.126974
20.448368
20.721649
20.946156
21.121340
21.246778
21.322165
21.347313
21.322165
21.246778
21.121340
20.946156
20.721649
20.448368
20.126974
19.758245
19.343079
18.882479
18.377562
17.829548
17.239765
16.609640
15.940695
15.234547
-14.220950
-13.406682
-12.558990
-11.679914
-10.771570
-9.836143
-8.875885
-7.893103
-6.890163
-5.869477
-4.833498
-3.784719
-2.725660
-1.658867
-0.586907
0.487644
1.562204
2.634187
3.701017
4.760128
5.808972
6.845028
7.865802
8.868837
9.851721
10.812085
11.747618
12.656065
13.535236
14.383013
15.197351
15.976283
16.717930
17.420504
18.082302
18.701727
19.277283
19.807575
20.291321
20.727348
21.114603
21.452145
21.739157
21.974941
22.158926
22.290665
22.369839
22.396252
22.369839
22.290665
22.158926
21.974941
21.739157
21.452145
21.114603
20.727348
20.291321
19.807575
19.277283
18.701727
18.082302
17.420504
16.717930
15.976283
-14.960861
-14.105647
-13.215324
-12.292037
-11.338005
-10.355527
-9.346964
-8.314744
-7.261349
-6.189313
-5.101215
-3.999670
-2.887328
-1.766863
-0.640970
0.487645
1.616267
2.742183
3.862685
4.975079
6.076688
7.164863
8.236985
9.290475
10.322796
11.331463
12.314047
13.268180
14.191563
15.081969
15.937252
16.755348
17.534281
18.272171
18.967237
19.617798
20.222281
20.779224
21.287281
21.745220
22.151934
22.506437
22.807869
23.055500
23.248730
23.387087
23.470238
23.497976
23.470238
23.387087
23.248730
23.055500
22.807869
22.506437
22.151934
21.745220
21.287281
20.779224
20.222281
19.617798
18.967237
18.272171
17.534281
16.755348
-15.738008
-14.839787
-13.904688
-12.934963
-11.932946
-10.901048
-9.841750
-8.757604
-7.651215
-6.525246
-5.382404
-4.225439
-3.057132
-1.880294
-0.697753
0.487645
1.673051
2.855613
4.032489
5.200846
6.357875
7.500793
8.626847
9.733331
10.817577
11.876978
12.908981
13.911099
14.880918
15.816100
16.714388
17.573618
18.391714
19.166700
19.896708
20.579969
21.214836
21.799772
22.333363
22.814316
23.241468
23.613785
23.930363
24.190437
24.393375
24.538685
24.626013
24.655146
24.626013
24.538685
24.393375
24.190437
23.930363
23.613785
23.241468
22.814316
22.333363
21.799772
21.214836
20.579969
19.896708
19.166700
18.391714
17.573618
-16.554262
-15.610870
-14.628743
-13.610245
-12.557826
-11.474021
-10.361436
-9.222749
-8.060699
-6.878083
-5.677743
-4.462569
-3.235481
-1.999432
-0.757394
0.487645
1.732692
2.974752
4.210838
5.437975
6.653214
7.853628
9.036329
10.198472
11.337258
12.449945
13.533854
14.586372
15.604964
16.587173
17.530634
18.433065
19.292294
20.106245
20.872950
21.590561
22.257339
22.871677
23.432087
23.937212
24.385832
24.776857
25.109344
25.382488
25.595623
25.748234
25.839949
25.870546
25.839949
25.748234
25.595623
25.382488
25.109344
24.776857
24.385832
23.937212
23.432087
22.871677
22.257339
21.590561
20.872950
20.106245
19.292294
18.433065
-17.411592
-16.420757
-15.389234
-14.319507
-13.214151
-12.075827
-10.907272
-9.711302
-8.490790
-7.248675
-5.987945
-4.711631
-3.422805
-2.124566
-0.820037
0.487645
1.795335
3.099886
4.398161
5.687037
6.963413
8.224218
9.466417
10.687020
11.883090
13.051744
14.190171
15.295626
16.365444
17.397049
18.387953
19.335762
20.238194
21.093067
21.898319
22.652006
23.352304
23.997522
24.586100
25.116613
25.587780
25.998459
26.347656
26.634525
26.858370
27.018650
27.114973
27.147108
27.114973
27.018650
26.858370
26.634525
26.347656
25.998459
25.587780
25.116613
24.586100
23.997522
23.352304
22.652006
21.898319
21.093067
20.238194
19.335762
-18.312065
-17.271397
-16.187992
-15.064460
-13.903502
-12.707916
-11.480577
-10.224439
-8.942524
-7.637917
-6.313756
-4.973228
-3.619556
-2.255997
-0.885831
0.487646
1.861130
3.231317
4.594912
5.948633
7.289223
8.613457
9.918147
11.200152
12.456388
13.683827
14.879516
16.040569
17.164194
18.247679
19.288412
20.283884
21.231691
22.129549
22.975286
23.766865
24.502367
25.180021
25.798183
26.355364
26.850212
27.281532
27.648279
27.949566
28.184660
28.352995
28.454159
28.487907
28.454159
28.352995
28.184660
27.949566
27.648279
27.281532
26.850212
26.355364
25.798183
25.180021
24.502367
23.766865
22.975286
22.129549
21.231691
20.283884
-20.303335
-19.257849
-18.164843
-17.026945
-15.846899
-14.627543
-13.371813
-12.082729
-10.763396
-9.416988
-8.046744
-6.655962
-5.247987
-3.826207
-2.394041
-0.954937
0.487646
1.930235
3.369361
4.801562
6.223391
7.631427
9.022282
10.392608
11.739106
13.058535
14.347717
15.603547
16.823000
18.003136
19.141113
20.234184
21.279715
22.275183
23.218185
24.106447
24.937822
25.710302
26.422022
27.071260
27.656448
28.176170
28.629169
29.014351
29.330778
29.577688
29.754482
29.860733
29.896177
29.860733
29.754482
29.577688
29.330778
29.014351
28.629169
28.176170
27.656448
27.071260
26.422022
25.710302
24.937822
24.106447
23.218185
22.275183
21.279715
-21.349289
-20.251225
-19.103245
-17.908113
-16.668711
-15.388017
-14.069116
-12.715182
-11.329474
-9.915327
-8.476144
-7.015388
-5.536572
-4.043256
-2.539032
-1.027519
0.487646
2.002818
3.514352
5.018611
6.511975
7.990851
9.451679
10.890944
12.305179
13.690981
15.045012
16.364012
17.644800
18.884295
20.079502
21.227547
22.325655
23.371181
24.361603
25.294527
26.167702
26.979021
27.726521
28.408398
29.023003
29.568850
30.044621
30.449162
30.781494
31.040813
31.226494
31.338083
31.375309
31.338083
31.226494
31.040813
30.781494
30.449162
30.044621
29.568850
29.023003
28.408398
27.726521
26.979021
26.167702
25.294527
24.361603
23.371181
22.325655
-22.447874
-21.294584
-20.088865
-18.833622
-17.531874
-16.186756
-14.801506
-13.379458
-11.924037
-10.438743
-8.927151
-7.392899
-5.839679
-4.271227
-2.691319
-1.103754
0.487646
2.079053
3.666639
5.246582
6.815080
8.368361
9.902682
11.414354
12.899736
14.355251
15.777395
17.162743
18.507954
19.809790
21.065111
22.270893
23.424227
24.522331
25.562555
26.542389
27.459469
28.311579
29.096661
29.812819
30.458321
31.031609
31.531294
31.956169
32.305206
32.577560
32.772575
32.889774
32.928871
32.889774
32.772575
32.577560
32.305206
31.956169
31.531294
31.031609
30.458321
29.812819
29.096661
28.311579
27.459469
26.542389
25.562555
24.522331
23.424227
-23.601738
-22.390446
-21.124083
-19.805698
-18.438469
-17.025686
-15.570749
-14.077161
-12.548516
-10.988495
-9.400851
-7.789406
-6.158037
-4.510670
-2.851268
-1.183825
0.487646
2.159124
3.826588
5.486023
7.133437
8.764865
10.376380
11.964103
13.524210
15.052947
16.546631
18.001663
19.414539
20.781855
22.100315
23.366739
24.578075
25.731401
26.823936
27.853041
28.816233
29.711187
30.535742
31.287905
31.965860
32.567966
33.092773
33.539009
33.905590
34.191635
34.396450
34.519539
34.560604
34.519539
34.396450
34.191635
33.905590
33.539009
33.092773
32.567966
31.965860
31.287905
30.535742
29.711187
28.816233
27.853041
26.823936
25.731401
24.578075
-24.813662
-23.541447
-22.211388
-20.826689
-19.390684
-17.906830
-16.378698
-14.809970
-13.204418
-11.565909
-9.898387
-8.205864
-6.492414
-4.762160
-3.019266
-1.267926
0.487646
2.243225
3.994585
5.737513
7.467813
9.181321
10.873913
12.541512
14.180106
15.785748
17.354570
18.882795
20.366741
21.802832
23.187607
24.517725
25.789984
27.001312
28.148787
29.229643
30.241268
31.181221
32.047234
32.837215
33.549255
34.181633
34.732822
35.201492
35.586502
35.886925
36.102036
36.231312
36.274441
36.231312
36.102036
35.886925
35.586502
35.201492
34.732822
34.181633
33.549255
32.837215
32.047234
31.181221
30.241268
29.229643
28.148787
27.001312
25.789984
-26.086565
-24.750362
-23.353403
-21.899052
-20.390810
-18.832310
-17.227303
-15.579651
-13.893323
-12.172379
-10.420958
-8.643278
-6.843616
-5.026305
-3.195716
-1.356257
0.487646
2.331556
4.171036
6.001657
7.819014
9.618732
11.396480
13.147976
14.869005
16.555422
18.203165
19.808266
21.366856
22.875181
24.329607
25.726625
27.062870
28.335119
29.540300
30.675508
31.738005
32.725224
33.634781
34.464481
35.212322
35.876495
36.455395
36.947624
37.351990
37.667519
37.893444
38.029217
38.074512
38.029217
37.893444
37.667519
37.351990
36.947624
36.455395
35.876495
35.212322
34.464481
33.634781
32.725224
31.738005
30.675508
29.540300
28.335119
27.062870
-27.423517
-26.020107
-24.552881
-23.025373
-21.441259
-19.804356
-18.118603
-16.388060
-14.616892
-12.809362
-10.969822
-9.102700
-7.212490
-5.303740
-3.381046
-1.449033
0.487646
2.424333
4.356364
6.279091
8.187885
10.078152
11.945340
13.784955
15.592566
17.363823
19.094458
20.780300
22.417294
24.001488
25.529070
26.996355
28.399805
29.736038
31.001831
32.194126
33.310055
34.346916
35.302208
36.173630
36.959072
37.656635
38.264641
38.781616
39.206314
39.537704
39.774986
39.917587
39.965160
39.917587
39.774986
39.537704
39.206314
38.781616
38.264641
37.656635
36.959072
36.173630
35.302208
34.346916
33.310055
32.194126
31.001831
29.736038
28.399805
-28.827740
-27.353741
-25.812712
-24.208366
-22.544563
-20.825314
-19.054752
-17.237144
-15.376867
-13.478396
-11.546304
-9.585239
-7.599923
-5.595135
-3.575700
-1.546478
0.487646
2.521777
4.551018
6.570486
8.575317
10.560688
12.521817
14.453984
16.352535
18.212900
20.030596
21.801245
23.520584
25.184465
26.788885
28.329971
29.804010
31.207447
32.536900
33.789158
34.961201
36.050201
37.053535
37.968773
38.793709
39.526348
40.164925
40.707890
41.153938
41.501991
41.751202
41.900970
41.950935
41.900970
41.751202
41.501991
41.153938
40.707890
40.164925
39.526348
38.793709
37.968773
37.053535
36.050201
34.961201
33.789158
32.536900
31.207447
29.804010
-30.302616
-28.754477
-27.135933
-25.450882
-23.703381
-21.897640
-20.038004
-18.128952
-16.175081
-14.181094
-12.151791
-10.092057
-8.006851
-5.901192
-3.780148
-1.648825
0.487646
2.624125
4.755466
6.876541
8.982244
11.067503
13.127300
15.156675
17.150742
19.104698
21.013836
22.873560
24.679386
26.426966
28.112087
29.730688
31.278868
32.752892
34.149204
35.464443
36.695427
37.839195
38.892979
39.854240
40.720654
41.490135
42.160816
42.731087
43.199562
43.565109
43.826851
43.984150
44.036625
43.984150
43.826851
43.565109
43.199562
42.731087
42.160816
41.490135
40.720654
39.854240
38.892979
37.839195
36.695427
35.464443
34.149204
32.752892
31.278868
-31.851702
-30.225693
-28.525732
-26.755915
-24.920506
-23.023920
-21.070728
-19.065632
-17.013458
-14.919147
-12.787744
-10.624376
-8.434254
-6.222648
-3.994884
-1.756323
0.487646
2.731622
4.970201
7.197997
9.409644
11.599819
13.763248
15.894724
17.989111
20.041368
22.046551
23.999828
25.896496
27.731983
29.501869
31.201885
32.827934
34.376095
35.842636
37.224018
38.516914
39.718197
40.824974
41.834576
42.744556
43.552731
44.257137
44.856079
45.348110
45.732037
46.006939
46.172146
46.227261
46.172146
46.006939
45.732037
45.348110
44.856079
44.257137
43.552731
42.744556
41.834576
40.824974
39.718197
38.516914
37.224018
35.842636
34.376095
32.827934
-33.478729
-31.770931
-29.985458
-28.126612
-26.198870
-24.206871
-22.155415
-20.049440
-17.894018
-15.694337
-13.455694
-11.183478
-8.883161
-6.560278
-4.220423
-1.869228
0.487647
2.844527
5.195741
7.535625
9.858549
12.158918
14.431195
16.669907
18.869663
21.025166
23.131224
25.182764
27.174845
29.102663
30.961576
32.747105
34.454941
36.080971
37.621269
39.072128
40.430046
41.691746
42.854183
43.914551
44.870293
45.719105
46.458931
47.087990
47.604759
48.007996
48.296719
48.470230
48.528118
48.470230
48.296719
48.007996
47.604759
47.087990
46.458931
45.719105
44.870293
43.914551
42.854183
41.691746
40.430046
39.072128
37.621269
36.080971
34.454941
-35.187622
-33.393917
-31.518631
-29.566275
-27.541553
-25.449341
-23.294676
-21.082748
-18.818882
-16.508530
-14.157252
-11.770713
-9.354655
-6.914896
-4.457311
-1.987815
0.487647
2.963114
5.432628
7.890243
10.330041
12.746149
15.132749
17.484093
19.794519
22.058464
24.270473
26.425220
28.517511
30.542309
32.494728
34.370071
36.163811
37.871624
39.489399
41.013229
42.439438
43.764591
44.985485
46.099182
47.102985
47.994480
48.771511
49.432201
49.974957
50.398464
50.701706
50.883945
50.944740
50.883945
50.701706
50.398464
49.974957
49.432201
48.771511
47.994480
47.102985
46.099182
44.985485
43.764591
42.439438
41.013229
39.489399
37.871624
36.163811
-36.982494
-35.098568
-33.128944
-31.078375
-28.951794
-26.754326
-24.491261
-22.168047
-19.790281
-17.363688
-14.894110
-12.387493
-9.849872
-7.287357
-4.706118
-2.112368
0.487647
3.087667
5.681434
8.262702
10.825255
13.362926
15.869600
18.339245
20.765909
23.143753
25.467045
27.730190
29.927736
32.054390
34.105022
36.074696
37.958660
39.752377
41.451519
43.051991
44.549931
45.941730
47.224026
48.393730
49.448017
50.384342
51.200443
51.894360
52.464409
52.909214
53.227699
53.419102
53.482956
53.419102
53.227699
52.909214
52.464409
51.894360
51.200443
50.384342
49.448017
48.393730
47.224026
45.941730
44.549931
43.051991
41.451519
39.752377
37.958660
-38.867680
-36.888981
-34.820278
-32.666553
-30.432991
-28.124969
-25.748049
-23.307953
-20.810556
-18.261873
-15.668041
-13.035306
-10.370006
-7.678558
-4.967443
-2.243188
0.487647
3.218488
5.942759
8.653901
11.345387
14.010735
16.643526
19.237423
21.786175
24.283646
26.723820
29.100819
31.408915
33.642548
35.796337
37.865089
39.843819
41.727756
43.512363
45.193333
46.766613
48.228413
49.575199
50.803726
51.911034
52.894444
53.751591
54.480400
55.079113
55.546288
55.880791
56.081818
56.148880
56.081818
55.880791
55.546288
55.079113
54.480400
53.751591
52.894444
51.911034
50.803726
49.575199
48.228413
46.766613
45.193333
43.512363
41.727756
39.843819
-40.847710
-38.769482
-36.596714
-34.334640
-31.988712
-29.564577
-27.068071
-24.505211
-21.882164
-19.205250
-16.480913
-13.715713
-10.916309
-8.089441
-5.241917
-2.380591
0.487647
3.355890
6.217232
9.064783
11.891688
14.691138
17.456392
20.180792
22.857775
25.480892
28.043829
30.540409
32.964619
35.310616
37.572746
39.745564
41.823826
43.802528
45.676899
47.442417
49.094826
50.630146
52.044666
53.334980
54.497974
55.530846
56.431095
57.196552
57.825375
58.316040
58.667366
58.878502
58.948936
58.878502
58.667366
58.316040
57.825375
57.196552
56.431095
55.530846
54.497974
53.334980
52.044666
50.630146
49.094826
47.442417
45.676899
43.802528
41.823826
-42.927368
-40.744595
-38.462528
-36.086655
-33.622707
-31.076616
-28.454512
-25.762709
-23.007690
-20.196093
-17.334682
-14.430355
-11.490100
-8.520999
-5.530200
-2.524906
0.487647
3.500205
6.505515
9.496339
12.465476
15.405775
18.310156
21.171625
23.983290
26.738377
29.430252
32.052429
34.598595
37.062607
39.438534
41.720650
43.903458
45.981689
47.950336
49.804657
51.540180
53.152718
54.638382
55.993591
57.215076
58.299889
59.245415
60.049370
60.709812
61.225155
61.594147
61.815899
61.889877
61.815899
61.594147
61.225155
60.709812