VARIABLES="X","Y","Z","p","rho","u","v","w"
ZONE T="Element0"
Nodes=8438, Elements=4086, ZONETYPE=FEBRICK
DATAPACKING=BLOCK
VARLOCATION = ([4,5,6,7,8] = CELLCENTERED)
0.334312
0.356449
0.378939
0.401742
0.424815
0.448117
0.471604
0.495232
0.518955
0.542727
0.566501
0.590227
0.613855
0.637333
0.660610
0.683631
0.706341
0.728685
0.750605
0.772043
0.792942
0.813240
0.832879
0.851798
0.869938
0.887237
0.903637
0.919076
0.933498
0.946842
0.959052
0.970070
0.979841
0.988309
0.995417
1.001107
1.005317
1.007968
1.008930
1.007968
1.005317
1.001107
0.995417
0.988309
0.979841
0.970070
0.959052
0.946842
0.933498
0.919076
0.903637
0.887237
0.869938
0.851798
0.832879
0.813240
0.792942
0.772043
0.750605
0.728685
0.706341
0.683631
0.660610
0.637333
0.613855
0.590227
0.566501
0.334312
0.356449
0.378939
0.401742
0.424815
0.448117
0.471604
0.495232
0.518955
0.542727
0.566501
0.590227
0.613855
0.637333
0.660610
0.683631
0.706341
0.728685
0.750605
0.772043
0.792942
0.813240
0.832879
0.851798
0.869938
0.887237
0.903637
0.919076
0.933498
0.946842
0.959052
0.970070
0.979841
0.988309
0.995417
1.001107
1.005317
1.007968
1.008930
1.007968
1.005317
1.001107
0.995417
0.988309
0.979841
0.970070
0.959052
0.946842
0.933498
0.919076
0.903637
0.887237
0.869938
0.851798
0.832879
0.813240
0.792942
0.772043
0.750605
0.728685
0.706341
0.683631
0.660610
0.637333
0.613855
0.590227
0.566501
0.334165
0.356584
0.379352
0.402427
0.425766
0.449325
0.473060
0.496925
0.520873
0.544857
0.568828
0.592735
0.616527
0.640153
0.663559
0.686690
0.709492
0.731907
0.753878
0.775348
0.796257
0.816546
0.836156
0.855026
0.873098
0.890311
0.906607
0.921926
0.936211
0.949405
0.961451
0.972294
0.981880
0.990156
0.997066
1.002555
1.006565
1.009029
1.009866
1.009029
1.006565
1.002555
0.997066
0.990156
0.981880
0.972294
0.961451
0.949405
0.936211
0.921926
0.906607
0.890311
0.873098
0.855026
0.836156
0.816546
0.796257
0.775348
0.753878
0.731907
0.709492
0.686690
0.663559
0.640153
0.616527
0.592735
0.568828
0.333605
0.356351
0.379443
0.402837
0.426490
0.450356
0.474388
0.498541
0.522765
0.547012
0.571232
0.595373
0.619384
0.643212
0.666801
0.690098
0.713046
0.735588
0.757666
0.779222
0.800198
0.820533
0.840168
0.859045
0.877103
0.894284
0.910529
0.925781
0.939982
0.953076
0.965009
0.975728
0.985180
0.993313
1.000077
1.005422
1.009297
1.011652
1.012443
1.011652
1.009297
1.005422
1.000077
0.993313
0.985180
0.975728
0.965009
0.953076
0.939982
0.925781
0.910529
0.894284
0.877103
0.859045
0.840168
0.820533
0.800198
0.779222
0.757666
0.735588
0.713046
0.690098
0.666801
0.643212
0.619384
0.595373
0.571232
0.332634
0.355753
0.379216
0.402979
0.426994
0.451217
0.475598
0.500090
0.524643
0.549207
0.573730
0.598160
0.622445
0.646529
0.670358
0.693876
0.717026
0.739751
0.761992
0.783691
0.804788
0.825225
0.844941
0.863878
0.881977
0.899179
0.915425
0.930660
0.944828
0.957872
0.969742
0.980383
0.989747
0.997786
1.004451
1.009700
1.013488
1.015780
1.016548
1.015780
1.013488
1.009700
1.004451
0.997786
0.989747
0.980383
0.969742
0.957872
0.944828
0.930660
0.915425
0.899179
0.881977
0.863878
0.844941
0.825225
0.804788
0.783691
0.761992
0.739751
0.717026
0.693876
0.670358
0.646529
0.622445
0.598160
0.573730
0.331251
0.354791
0.378675
0.402856
0.427286
0.451917
0.476700
0.501585
0.526521
0.551456
0.576338
0.601114
0.625728
0.650125
0.674250
0.698046
0.721455
0.744419
0.766880
0.788777
0.810052
0.830646
0.850498
0.869549
0.887741
0.905016
0.921316
0.936585
0.950767
0.963810
0.975662
0.986272
0.995593
1.003580
1.010188
1.015380
1.019118
1.021375
1.022129
1.021375
1.019118
1.015380
1.010188
1.003580
0.995593
0.986272
0.975662
0.963810
0.950767
0.936585
0.921316
0.905016
0.887741
0.869549
0.850498
0.830646
0.810052
0.788777
0.766880
0.744419
0.721455
0.698046
0.674250
0.650125
0.625728
0.601114
0.576338
0.329454
0.353466
0.377822
0.402473
0.427371
0.452465
0.477704
0.503037
0.528412
0.553775
0.579073
0.604250
0.629251
0.654019
0.678498
0.702629
0.726355
0.749616
0.772352
0.794505
0.816014
0.836820
0.856862
0.876082
0.894420
0.911819
0.928223
0.943575
0.957821
0.970908
0.982787
0.993409
1.002728
1.010701
1.017289
1.022456
1.026172
1.028412
1.029160
1.028412
1.026172
1.022456
1.017289
1.010701
1.002728
0.993409
0.982787
0.970908
0.957821
0.943575
0.928223
0.911819
0.894420
0.876082
0.856862
0.836820
0.816014
0.794505
0.772352
0.749616
0.726355
0.702629
0.678498
0.654019
0.629251
0.604250
0.579073
0.327242
0.351777
0.376658
0.401834
0.427253
0.452865
0.478617
0.504456
0.530327
0.556176
0.581948
0.607585
0.633032
0.658230
0.683122
0.707647
0.731748
0.755364
0.778434
0.800899
0.822698
0.843771
0.864058
0.883500
0.902037
0.919613
0.936169
0.951652
0.966008
0.979185
0.991134
1.001807
1.011163
1.019158
1.025758
1.030928
1.034643
1.036881
1.037629
1.036881
1.034643
1.030928
1.025758
1.019158
1.011163
1.001807
0.991134
0.979185
0.966008
0.951652
0.936169
0.919613
0.902037
0.883500
0.864058
0.843771
0.822698
0.800899
0.778434
0.755364
0.731748
0.707647
0.683122
0.658230
0.633032
0.607585
0.581948
0.324609
0.349722
0.375183
0.400939
0.426938
0.453126
0.479448
0.505851
0.532278
0.558673
0.584978
0.611136
0.637089
0.662777
0.688141
0.713121
0.737656
0.761686
0.785149
0.807984
0.830130
0.851527
0.872113
0.891830
0.910618
0.928420
0.945179
0.960841
0.975352
0.988661
1.000721
1.011486
1.020913
1.028963
1.035603
1.040802
1.044534
1.046782
1.047532
1.046782
1.044534
1.040802
1.035603
1.028963
1.020913
1.011486
1.000721
0.988661
0.975352
0.960841
0.945179
0.928420
0.910618
0.891830
0.872113
0.851527
0.830130
0.807984
0.785149
0.761686
0.737656
0.713121
0.688141
0.662777
0.637089
0.611136
0.584978
0.321552
0.347299
0.373397
0.399791
0.426428
0.453251
0.480204
0.507232
0.534275
0.561277
0.588178
0.614919
0.641439
0.667679
0.693577
0.719072
0.744102
0.768606
0.792520
0.815784
0.838335
0.860111
0.881052
0.901098
0.920189
0.938268
0.955278
0.971165
0.985876
0.999360
1.011571
1.022463
1.031996
1.040132
1.046838
1.052086
1.055852
1.058119
1.058876
1.058119
1.055852
1.052086
1.046838
1.040132
1.031996
1.022463
1.011571
0.999360
0.985876
0.971165
0.955278
0.938268
0.920189
0.901098
0.881052
0.860111
0.838335
0.815784
0.792520
0.768606
0.744102
0.719072
0.693577
0.667679
0.641439
0.614919
0.588178
0.318066
0.344504
0.371297
0.398390
0.425725
0.453245
0.480892
0.508606
0.536330
0.564002
0.591562
0.618948
0.646100
0.672955
0.699450
0.725523
0.751110
0.776148
0.800575
0.824326
0.847339
0.869552
0.890903
0.911332
0.930779
0.949185
0.966494
0.982652
0.997607
1.011307
1.023707
1.034762
1.044433
1.052683
1.059479
1.064796
1.068610
1.070906
1.071673
1.070906
1.068610
1.064796
1.059479
1.052683
1.044433
1.034762
1.023707
1.011307
0.997607
0.982652
0.966494
0.949185
0.930779
0.911332
0.890903
0.869552
0.847339
0.824326
0.800575
0.776148
0.751110
0.725523
0.699450
0.672955
0.646100
0.618948
0.591562
0.314142
0.341332
0.368883
0.396736
0.424832
0.453112
0.481516
0.509983
0.538451
0.566859
0.595143
0.623241
0.651089
0.678624
0.705780
0.732494
0.758702
0.784337
0.809337
0.833636
0.857171
0.879878
0.901696
0.922561
0.942416
0.961200
0.978857
0.995332
1.010573
1.024530
1.037157
1.048409
1.058249
1.066639
1.073550
1.078954
1.082830
1.085162
1.085941
1.085162
1.082830
1.078954
1.073550
1.066639
1.058249
1.048409
1.037157
1.024530
1.010573
0.995332
0.978857
0.961200
0.942416
0.922561
0.901696
0.879878
0.857171
0.833636
0.809337
0.784337
0.758702
0.732494
0.705780
0.678624
0.651089
0.623241
0.595143
0.309774
0.337778
0.366149
0.394827
0.423750
0.452856
0.482084
0.511370
0.540650
0.569860
0.598936
0.627813
0.656424
0.684705
0.712589
0.740011
0.766903
0.793199
0.818835
0.843743
0.867859
0.891119
0.913459
0.934817
0.955132
0.974344
0.992397
1.009235
1.024806
1.039060
1.051950
1.063434
1.073472
1.082030
1.089075
1.094584
1.098535
1.100912
1.101705
1.100912
1.098535
1.094584
1.089075
1.082030
1.073472
1.063434
1.051950
1.039060
1.024806
1.009235
0.992397
0.974344
0.955132
0.934817
0.913459
0.891119
0.867859
0.843743
0.818835
0.793199
0.766903
0.740011
0.712589
0.684705
0.656424
0.627813
0.598936
0.304953
0.333835
0.363093
0.392662
0.422479
0.452480
0.482600
0.512774
0.542935
0.573018
0.602955
0.632680
0.662124
0.691219
0.719899
0.748094
0.775737
0.802760
0.829095
0.854675
0.879434
0.903306
0.926226
0.948132
0.968960
0.988652
1.007149
1.024396
1.040339
1.054930
1.068121
1.079869
1.090135
1.098885
1.106087
1.111718
1.115755
1.118183
1.118994
1.118183
1.115755
1.111718
1.106087
1.098885
1.090135
1.079869
1.068121
1.054930
1.040339
1.024396
1.007149
0.988652
0.968960
0.948132
0.926226
0.903306
0.879434
0.854675
0.829095
0.802760
0.775737
0.748094
0.719899
0.691219
0.662124
0.632680
0.602955
0.299667
0.329496
0.359708
0.390237
0.421019
0.451985
0.483068
0.514202
0.545316
0.576344
0.607214
0.637857
0.668205
0.698186
0.727731
0.756770
0.785232
0.813048
0.840148
0.866464
0.891928
0.916472
0.940031
0.962540
0.983937
1.004159
1.023149
1.040851
1.057210
1.072177
1.085705
1.097750
1.108274
1.117241
1.124621
1.130389
1.134525
1.137012
1.137843
1.137012
1.134525
1.130389
1.124621
1.117241
1.108274
1.097750
1.085705
1.072177
1.057210
1.040851
1.023149
1.004159
0.983937
0.962540
0.940031
0.916472
0.891928
0.866464
0.840148
0.813048
0.785232
0.756770
0.727731
0.698186
0.668205
0.637857
0.607214
0.293907
0.324751
0.355988
0.387550
0.419368
0.451373
0.483494
0.515661
0.547803
0.579849
0.611726
0.643363
0.674688
0.705627
0.736110
0.766063
0.795414
0.824091
0.852024
0.879142
0.905374
0.930652
0.954910
0.978080
1.000099
1.020905
1.040438
1.058641
1.075459
1.090843
1.104744
1.117119
1.127928
1.137137
1.144716
1.150638
1.154884
1.157438
1.158290
1.157438
1.154884
1.150638
1.144716
1.137137
1.127928
1.117119
1.104744
1.090843
1.075459
1.058641
1.040438
1.020905
1.000099
0.978080
0.954910
0.930652
0.905374
0.879142
0.852024
0.824091
0.795414
0.766063
0.736110
0.705627
0.674688
0.643363
0.611726
0.287658
0.319591
0.351927
0.384596
0.417526
0.450645
0.483880
0.517158
0.550404
0.583545
0.616507
0.649214
0.681591
0.713564
0.745058
0.775999
0.806311
0.835921
0.864755
0.892741
0.919807
0.945884
0.970900
0.994790
1.017488
1.038930
1.059056
1.077807
1.095129
1.110969
1.125280
1.138018
1.149143
1.158619
1.166416
1.172508
1.176876
1.179503
1.180380
1.179503
1.176876
1.172508
1.166416
1.158619
1.149143
1.138018
1.125280
1.110969
1.095129
1.077807
1.059056
1.038930
1.017488
0.994790
0.970900
0.945884
0.919807
0.892741
0.864755
0.835921
0.806311
0.775999
0.745058
0.713564
0.681591
0.649214
0.616507
0.280908
0.314004
0.347516
0.381370
0.415490
0.449802
0.484231
0.518699
0.553129
0.587446
0.621571
0.655426
0.688935
0.722019
0.754602
0.786605
0.817953
0.848567
0.878374
0.907298
0.935266
0.962205
0.988043
1.012713
1.036147
1.058280
1.079050
1.098397
1.116266
1.132604
1.147363
1.160496
1.171965
1.181733
1.189770
1.196049
1.200550
1.203257
1.204160
1.203257
1.200550
1.196049
1.189770
1.181733
1.171965
1.160496
1.147363
1.132604
1.116266
1.098397
1.079050
1.058280
1.036147
1.012713
0.988043
0.962205
0.935266
0.907298
0.878374
0.848567
0.817953
0.786605
0.754602
0.722019
0.688935
0.655426
0.621571
0.273641
0.307980
0.342747
0.377865
0.413257
0.448845
0.484549
0.520290
0.555987
0.591562
0.626933
0.662019
0.696740
0.731016
0.764767
0.797911
0.830370
0.862065
0.892918
0.922851
0.951789
0.979657
1.006382
1.031893
1.056121
1.079000
1.100467
1.120459
1.138921
1.155799
1.171042
1.184606
1.196448
1.206534
1.214831
1.221312
1.225958
1.228752
1.229685
1.228752
1.225958
1.221312
1.214831
1.206534
1.196448
1.184606
1.171042
1.155799
1.138921
1.120459
1.100467
1.079000
1.056121
1.031893
1.006382
0.979657
0.951789
0.922851
0.892918
0.862065
0.830370
0.797911
0.764767
0.731016
0.696740
0.662019
0.626933
0.265842
0.301503
0.337608
0.374075
0.410824
0.447772
0.484838
0.521937
0.558988
0.595906
0.632608
0.669010
0.705028
0.740579
0.775579
0.809946
0.843596
0.876449
0.908423
0.939439
0.969419
0.998284
1.025962
1.052377
1.077460
1.101143
1.123359
1.144047
1.163148
1.180608
1.196375
1.210402
1.222649
1.233077
1.241655
1.248356
1.253159
1.256048
1.257012
1.256048
1.253159
1.248356
1.241655
1.233077
1.222649
1.210402
1.196375
1.180608
1.163148
1.144047
1.123359
1.101143
1.077460
1.052377
1.025962
0.998284
0.969419
0.939439
0.908423
0.876449
0.843596
0.809946
0.775579
0.740579
0.705028
0.669010
0.632608
0.257491
0.294561
0.332090
0.369993
0.408186
0.446584
0.485100
0.523648
0.562141
0.600492
0.638614
0.676420
0.713822
0.750734
0.787069
0.822741
0.857665
0.891756
0.924929
0.957104
0.988199
1.018133
1.046831
1.074216
1.100216
1.124760
1.147782
1.169217
1.189005
1.207090
1.223420
1.237947
1.250628
1.261425
1.270306
1.277244
1.282216
1.285206
1.286204
1.285206
1.282216
1.277244
1.270306
1.261425
1.250628
1.237947
1.223420
1.207090
1.189005
1.169217
1.147782
1.124760
1.100216
1.074216
1.046831
1.018133
0.988199
0.957104
0.924929
0.891756
0.857665
0.822741
0.787069
0.750734
0.713822
0.676420
0.638614
0.248570
0.287137
0.326180
0.365610
0.405339
0.445278
0.485337
0.525426
0.565455
0.605331
0.644966
0.684267
0.723144
0.761507
0.799266
0.836330
0.872612
0.908024
0.942478
0.975890
1.008176
1.039253
1.069041
1.097463
1.124444
1.149911
1.173794
1.196029
1.216553
1.235308
1.252241
1.267303
1.280451
1.291644
1.300851
1.308041
1.313195
1.316294
1.317329
1.316294
1.313195
1.308041
1.300851
1.291644
1.280451
1.267303
1.252241
1.235308
1.216553
1.196029
1.173794
1.149911
1.124444
1.097463
1.069041
1.039253
1.008176
0.975890
0.942478
0.908024
0.872612
0.836330
0.799266
0.761507
0.723144
0.684267
0.644966
0.239058
0.279215
0.319865
0.360917
0.402278
0.443854
0.485553
0.527280
0.568940
0.610439
0.651681
0.692573
0.733020
0.772926
0.812200
0.850747
0.888476
0.925295
0.961114
0.995844
1.029400
1.061695
1.092647
1.122176
1.150203
1.176654
1.201458
1.224547
1.245857
1.265329
1.282907
1.298542
1.312188
1.323805
1.333359
1.340821
1.346169
1.349385
1.350458
1.349385
1.346169
1.340821
1.333359
1.323805
1.312188
1.298542
1.282907
1.265329
1.245857
1.224547
1.201458
1.176654
1.150203
1.122176
1.092647
1.061695
1.029400
0.995844
0.961114
0.925295
0.888476
0.850747
0.812200
0.772926
0.733020
0.692573
0.651681
0.228934
0.270776
0.313132
0.355903
0.398995
0.442310
0.485749
0.529214
0.572607
0.615828
0.658779
0.701360
0.743474
0.785021
0.825905
0.866028
0.905295
0.943611
0.980882
1.017016
1.051923
1.085515
1.117706
1.148413
1.177555
1.205056
1.230841
1.254840
1.276989
1.297225
1.315491
1.331737
1.345914
1.357984
1.367909
1.375661
1.381216
1.384556
1.385671
1.384556
1.381216
1.375661
1.367909
1.357984
1.345914
1.331737
1.315491
1.297225
1.276989
1.254840
1.230841
1.205056
1.177555
1.148413
1.117706
1.085515
1.051923
1.017016
0.980882
0.943611
0.905295
0.866028
0.825905
0.785021
0.743474
0.701360
0.658779
0.218173
0.261802
0.305964
0.350558
0.395485
0.440642
0.485926
0.531235
0.576465
0.621513
0.666276
0.710650
0.754533
0.797822
0.840416
0.882213
0.923113
0.963019
1.001832
1.039457
1.075800
1.110771
1.144279
1.176239
1.206567
1.235184
1.262013
1.286981
1.310022
1.331071
1.350070
1.366966
1.381710
1.394261
1.404582
1.412642
1.418417
1.421891
1.423050
1.421891
1.418417
1.412642
1.404582
1.394261
1.381710
1.366966
1.350070
1.331071
1.310022
1.286981
1.262013
1.235184
1.206567
1.176239
1.144279
1.110771
1.075800
1.039457
1.001832
0.963019
0.923113
0.882213
0.840416
0.797822
0.754533
0.710650
0.666276
0.206751
0.252270
0.298345
0.344870
0.391740
0.438848
0.486087
0.533349
0.580526
0.627510
0.674193
0.720468
0.766226
0.811362
0.855768
0.899340
0.941973
0.983565
1.024015
1.063222
1.101090
1.137524
1.172431
1.205721
1.237309
1.267111
1.295049
1.321047
1.345036
1.366949
1.386727
1.404314
1.419660
1.432723
1.443464
1.451852
1.457863
1.461477
1.462683
1.461477
1.457863
1.451852
1.443464
1.432723
1.419660
1.404314
1.386727
1.366949
1.345036
1.321047
1.295049
1.267111
1.237309
1.205721
1.172431
1.137524
1.101090
1.063222
1.024015
0.983565
0.941973
0.899340
0.855768
0.811362
0.766226
0.720468
0.674193
0.194640
0.242160
0.290259
0.338826
0.387753
0.436925
0.486233
0.535562
0.584800
0.633834
0.682551
0.730838
0.778583
0.825674
0.872001
0.917453
0.961923
1.005302
1.047486
1.088370
1.127855
1.165840
1.202230
1.236931
1.269855
1.300914
1.330028
1.357119
1.382114
1.404945
1.425549
1.443869
1.459855
1.473461
1.484649
1.493385
1.499645
1.503409
1.504665
1.503409
1.499645
1.493385
1.484649
1.473461
1.459855
1.443869
1.425549
1.404945
1.382114
1.357119
1.330028
1.300914
1.269855
1.236931
1.202230
1.165840
1.127855
1.088370
1.047486
1.005302
0.961923
0.917453
0.872001
0.825674
0.778583
0.730838
0.682551
0.181812
0.231447
0.281685
0.332413
0.383513
0.434870
0.486365
0.537881
0.589299
0.640501
0.691370
0.741786
0.791633
0.840794
0.889153
0.936596
0.983010
1.028281
1.072302
1.114962
1.156158
1.195787
1.233748
1.269944
1.304283
1.336675
1.367036
1.395285
1.421346
1.445149
1.466629
1.485727
1.502391
1.516573
1.528234
1.537339
1.543863
1.547786
1.549096
1.547786
1.543863
1.537339
1.528234
1.516573
1.502391
1.485727
1.466629
1.445149
1.421346
1.395285
1.367036
1.336675
1.304283
1.269944
1.233748
1.195787
1.156158
1.114962
1.072302
1.028281
0.983010
0.936596
0.889153
0.840794
0.791633
0.741786
0.691370
0.168237
0.220106
0.272605
0.325615
0.379013
0.432678
0.486485
0.540312
0.594035
0.647529
0.700672
0.753340
0.805410
0.856760
0.907269
0.956817
1.005286
1.052560
1.098523
1.143063
1.186071
1.227438
1.267061
1.304840
1.340677
1.374480
1.406161
1.435635
1.462825
1.487658
1.510066
1.529988
1.547369
1.562161
1.574323
1.583820
1.590624
1.594715
1.596081
1.594715
1.590624
1.583820
1.574323
1.562161
1.547369
1.529988
1.510066
1.487658
1.462825
1.435635
1.406161
1.374480
1.340677
1.304840
1.267061
1.227438
1.186071
1.143063
1.098523
1.052560
1.005286
0.956817
0.907269
0.856760
0.805410
0.753340
0.700672
0.153883
0.208111
0.262998
0.318417
0.374242
0.430344
0.486594
0.542862
0.599019
0.654936
0.710482
0.765528
0.819947
0.873610
0.926391
0.978164
1.028807
1.078197
1.126214
1.172741
1.217664
1.260870
1.302251
1.341703
1.379125
1.414420
1.447496
1.478267
1.506652
1.532573
1.555963
1.576756
1.594897
1.610335
1.623027
1.632938
1.640038
1.644307
1.645732
1.644307
1.640038
1.632938
1.623027
1.610335
1.594897
1.576756
1.555963
1.532573
1.506652
1.478267
1.447496
1.414420
1.379125
1.341703
1.302251
1.260870
1.217664
1.172741
1.126214
1.078197
1.028807
0.978164
0.926391
0.873610
0.819947
0.765528
0.710482
0.138715
0.195432
0.252839
0.310803
0.369189
0.427864
0.486692
0.545538
0.604266
0.662739
0.720823
0.778382
0.835281
0.891387
0.946567
1.000691
1.053629
1.105255
1.155442
1.204068
1.251014
1.296163
1.339402
1.380623
1.419719
1.456591
1.491142
1.523284
1.552931
1.580004
1.604431
1.626146
1.645090
1.661210
1.674463
1.684811
1.692224
1.696682
1.698169
1.696682
1.692224
1.684811
1.674463
1.661210
1.645090
1.626146
1.604431
1.580004
1.552931
1.523284
1.491142
1.456591
1.419719
1.380623
1.339402
1.296163
1.251014
1.204068
1.155442
1.105255
1.053629
1.000691
0.946567
0.891387
0.835281
0.778382
0.720823
0.122697
0.182041
0.242107
0.302754
0.363843
0.425233
0.486782
0.548347
0.609787
0.670959
0.731721
0.791931
0.851448
0.910133
0.967847
1.024452
1.079814
1.133799
1.186277
1.237120
1.286202
1.333403
1.378604
1.421692
1.462557
1.501094
1.537204
1.570794
1.601774
1.630063
1.655586
1.678274
1.698066
1.714908
1.728753
1.739563
1.747307
1.751964
1.753518
1.751964
1.747307
1.739563
1.728753
1.714908
1.698066
1.678274
1.655586
1.630063
1.601774
1.570794
1.537204
1.501094
1.462557
1.421692
1.378604
1.333403
1.286202
1.237120
1.186277
1.133799
1.079814
1.024452
0.967847
0.910133
0.851448
0.791931
0.731721
0.105791
0.167906
0.230774
0.294252
0.358191
0.422444
0.486863
0.551297
0.615598
0.679617
0.743204
0.806211
0.868490
0.929895
0.990281
1.049504
1.107424
1.163899
1.218795
1.271977
1.323314
1.372680
1.419952
1.465011
1.507742
1.548037
1.585793
1.620910
1.653298
1.682871
1.709551
1.733267
1.753954
1.771557
1.786028
1.797326
1.805420
1.810286
1.811910
1.810286
1.805420
1.797326
1.786028
1.771557
1.753954
1.733267
1.709551
1.682871
1.653298
1.620910
1.585793
1.548037
1.507742
1.465011
1.419952
1.372680
1.323314
1.271977
1.218795
1.163899
1.107424
1.049504
0.990281
0.929895
0.868490
0.806211
0.743204
0.087957
0.152992
0.218816
0.285277
0.352221
0.419492
0.486936
0.554395
0.621713
0.688733
0.755299
0.821255
0.886447
0.950721
1.013926
1.075910
1.136526
1.195628
1.253074
1.308723
1.362439
1.414089
1.463545
1.510683
1.555384
1.597534
1.637025
1.673754
1.707627
1.738555
1.766456
1.791256
1.812888
1.831294
1.846425
1.858238
1.866700
1.871788
1.873486
1.871788
1.866700
1.858238
1.846425
1.831294
1.812888
1.791256
1.766456
1.738555
1.707627
1.673754
1.637025
1.597534
1.555384
1.510683
1.463545
1.414089
1.362439
1.308723
1.253074
1.195628
1.136526
1.075910
1.013926
0.950721
0.886447
0.821255
0.755299
0.069153
0.137264
0.206202
0.275807
0.345918
0.416371
0.487003
0.557649
0.628147
0.698330
0.768036
0.837101
0.905363
0.972662
1.038837
1.103732
1.167192
1.229063
1.289197
1.347448
1.403671
1.457730
1.509489
1.558820
1.605597
1.649702
1.691023
1.729453
1.764893
1.797249
1.826437
1.852381
1.875009
1.894263
1.910089
1.922445
1.931296
1.936618
1.938393
1.936618
1.931296
1.922445
1.910089
1.894263
1.875009
1.852381
1.826437
1.797249
1.764893
1.729453
1.691023
1.649702
1.605597
1.558820
1.509489
1.457730
1.403671
1.347448
1.289197
1.229063
1.167192
1.103732
1.038837
0.972662
0.905363
0.837101
0.768036
0.049332
0.120684
0.192903
0.265821
0.339267
0.413072
0.487063
0.561068
0.634916
0.708432
0.781447
0.853787
0.925285
0.995770
1.065076
1.133039
1.199495
1.264285
1.327252
1.388244
1.447111
1.503708
1.557895
1.609536
1.658502
1.704669
1.747919
1.788141
1.825232
1.859094
1.889640
1.916788
1.940467
1.960614
1.977174
1.990102
1.999363
2.004931
2.006789
2.004931
1.999363
1.990102
1.977174
1.960614
1.940467
1.916788
1.889640
1.859094
1.825232
1.788141
1.747919
1.704669
1.658502
1.609536
1.557895
1.503708
1.447111
1.388244
1.327252
1.264285
1.199495
1.133039
1.065076
0.995770
0.925285
0.853787
0.781447
0.028449
0.103214
0.178888
0.255294
0.332254
0.409588
0.487118
0.564661
0.642036
0.719064
0.795563
0.871355
0.946260
1.020103
1.092707
1.163901
1.233514
1.301378
1.367331
1.431211
1.492862
1.552134
1.608878
1.662955
1.714227
1.762566
1.807849
1.849959
1.888790
1.924239
1.956215
1.984633
2.009419
2.030507
2.047840
2.061372
2.071064
2.076892
2.078836
2.076892
2.071064
2.061372
2.047840
2.030507
2.009419
1.984633
1.956215
1.924239
1.888790
1.849959
1.807849
1.762566
1.714227
1.662955
1.608878
1.552134
1.492862
1.431211
1.367331
1.301378
1.233514
1.163901
1.092707
1.020103
0.946260
0.871355
0.795563
0.006452
0.084811
0.164123
0.244202
0.324861
0.405913
0.487167
0.568435
0.649526
0.730251
0.810421
0.889846
0.968340
1.045718
1.121796
1.196393
1.269330
1.340433
1.409529
1.476452
1.541036
1.603125
1.662563
1.719204
1.772906
1.823533
1.870957
1.915057
1.955719
1.992840
2.026323
2.056079
2.082031
2.104110
2.122258
2.136425
2.146573
2.152673
2.154709
2.152673
2.146573
2.136425
2.122258
2.104110
2.082031
2.056079
2.026323
1.992840
1.955719
1.915057
1.870957
1.823533
1.772906
1.719204
1.662563
1.603125
1.541036
1.476452
1.409529
1.340433
1.269330
1.196393
1.121796
1.045718
0.968340
0.889846
0.810421
-0.016711
0.065431
0.148572
0.232517
0.317071
0.402036
0.487212
0.572402
0.657404
0.742022
0.826054
0.909306
0.991578
1.072679
1.152414
1.230594
1.307032
1.381544
1.453951
1.524076
1.591749
1.656803
1.719079
1.778420
1.834680
1.887716
1.937395
1.983590
2.026182
2.065063
2.100132
2.131297
2.158478
2.181601
2.200606
2.215442
2.226069
2.232458
2.234590
2.232458
2.226069
2.215442
2.200606
2.181601
2.158478
2.131297
2.100132
2.065063
2.026182
1.983590
1.937395
1.887716
1.834680
1.778420
1.719079
1.656803
1.591749
1.524076
1.453951
1.381544
1.307032
1.230594
1.152414
1.072679
0.991578
0.909306
0.826054
-0.041096
0.045028
0.132199
0.220213
0.308866
0.397949
0.487253
0.576570
0.665690
0.754404
0.842503
0.929781
1.016031
1.101049
1.184634
1.266586
1.346709
1.424810
1.500701
1.574199
1.645123
1.713300
1.778561
1.840746
1.899699
1.955271
2.007324
2.055724
2.100348
2.141082
2.177821
2.210470
2.238943
2.263165
2.283073
2.298614
2.309746
2.316438
2.318671
2.316438
2.309746
2.298614
2.283073
2.263165
2.238943
2.210470
2.177821
2.141082
2.100348
2.055724
2.007324
1.955271
1.899699
1.840746
1.778561
1.713300
1.645123
1.574199
1.500701
1.424810
1.346709
1.266586
1.184634
1.101049
1.016031
0.929781
0.842503
-0.066760
0.023552
0.114964
0.207260
0.300226
0.393642
0.487290
0.580950
0.674402
0.767427
0.859807
0.951322
1.041758
1.130899
1.218535
1.304456
1.388457
1.470335
1.549894
1.626941
1.701286
1.772750
1.841154
1.906331
1.968118
2.026360
2.080911
2.131632
2.178395
2.221080
2.259577
2.293787
2.323620
2.349000
2.369859
2.386141
2.397804
2.404814
2.407154
2.404814
2.397804
2.386141
2.369859
2.349000
2.323620
2.293787
2.259577
2.221080
2.178395
2.131632
2.080911
2.026360
1.968118
1.906331
1.841154
1.772750
1.701286
1.626941
1.549894
1.470335
1.388457
1.304456
1.218535
1.130899
1.041758
0.951322
0.859807
-0.093767
0.000952
0.096826
0.193627
0.291130
0.389105
0.487323
0.585553
0.683563
0.781125
0.878007
0.973981
1.068820
1.162300
1.254199
1.344296
1.432378
1.518231
1.601649
1.682429
1.760375
1.835297
1.907009
1.975334
2.040104
2.101155
2.158335
2.211498
2.260512
2.305249
2.345596
2.381449
2.412714
2.439311
2.461170
2.478233
2.490454
2.497801
2.500252
2.497801
2.490454
2.478233
2.461170
2.439311
2.412714
2.381449
2.345596
2.305249
2.260512
2.211498
2.158335
2.101155
2.040104
1.975334
1.907009
1.835297
1.760375
1.682429
1.601649
1.518231
1.432378
1.344296
1.254199
1.162300
1.068820
0.973981
0.878007
-0.122180
-0.022825
0.077741
0.179281
0.281557
0.384329
0.487354
0.590390
0.693196
0.795529
0.897147
0.997812
1.097284
1.195328
1.291711
1.386203
1.478577
1.568611
1.656089
1.740798
1.822532
1.901091
1.976283
2.047921
2.115829
2.179835
2.239781
2.295515
2.346895
2.393792
2.436086
2.473667
2.506439
2.534317
2.557228
2.575112
2.587921
2.595621
2.598191
2.595621
2.587921
2.575112
2.557228
2.534317
2.506439
2.473667
2.436086
2.393792
2.346895
2.295515
2.239781
2.179835
2.115829
2.047921
1.976283
1.901091
1.822532
1.740798
1.656089
1.568611
1.478577
1.386203
1.291711
1.195328
1.097284
0.997812
0.897147
-0.152069
-0.047838
0.057664
0.164188
0.271484
0.379300
0.487381
0.595473
0.703323
0.810674
0.917275
1.022873
1.127219
1.230063
1.331163
1.430276
1.527165
1.621598
1.713346
1.802187
1.887906
1.970292
2.049145
2.124267
2.195475
2.262591
2.325446
2.383883
2.437754
2.486923
2.531264
2.570663
2.605020
2.634246
2.658264
2.677011
2.690439
2.698511
2.701204
2.698511
2.690439
2.677011
2.658264
2.634246
2.605020
2.570663
2.531264
2.486923
2.437754
2.383883
2.325446
2.262591
2.195475
2.124267
2.049145
1.970292
1.887906
1.802187
1.713346
1.621598
1.527165
1.430276
1.331163
1.230063
1.127219
1.022873
0.917275
-0.183504
-0.074146
0.036546
0.148312
0.260887
0.374008
0.487406
0.600815
0.713969
0.826598
0.938439
1.049225
1.158696
1.266589
1.372650
1.476623
1.578261
1.677320
1.773559
1.866746
1.956656
2.043067
2.125768
2.204556
2.279236
2.349621
2.415537
2.476817
2.533307
2.584865
2.631360
2.672672
2.708696
2.739338
2.764520
2.784176
2.798254
2.806717
2.809541
2.806717
2.798254
2.784176
2.764520
2.739338
2.708696
2.672672
2.631360
2.584865
2.533307
2.476817
2.415537
2.349621
2.279236
2.204556
2.125768
2.043067
1.956656
1.866746
1.773559
1.677320
1.578261
1.476623
1.372650
1.266589
1.158696
-0.216562
-0.101813
0.014338
0.131614
0.249741
0.368439
0.487429
0.606429
0.725159
0.843339
0.960689
1.076932
1.191791
1.304994
1.416271
1.525356
1.631987
1.735910
1.836872
1.934630
2.028946
2.119590
2.206340
2.288982
2.367312
2.441136
2.510269
2.574540
2.633785
2.687855
2.736614
2.779938
2.817714
2.849848
2.876254
2.896866
2.911628
2.920501
2.923462
2.920501
2.911628
2.896866
2.876254
2.849848
2.817714
2.779938
2.736614
2.687855
2.633785
2.574540
2.510269
2.441136
2.367312
2.288982
2.206340
2.119590
2.028946
1.934630
1.836872
1.735910
1.631987
1.525356
1.416271
1.304994
1.191791
-0.251322
-0.130904
-0.009016
0.114055
0.238018
0.362581
0.487449
0.612328
0.736922
0.860938
0.984081
1.106060
1.226585
1.345370
1.462132
1.576591
1.688474
1.797511
1.903439
2.006002
2.104952
2.200046
2.291053
2.377747
2.459916
2.537355
2.609873
2.677287
2.739429
2.796141
2.847282
2.892720
2.932340
2.966040
2.993734
3.015350
3.030831
3.040137
3.043242
3.040137
3.030831
3.015350
2.993734
2.966040
2.932340
2.892720
2.847282
2.796141
2.739429
2.677287
2.609873
2.537355
2.459916
2.377747
2.291053
2.200046
2.104952
2.006002
1.903439
1.797511
1.688474
1.576591
1.462132
1.345370
1.226585
-0.287868
-0.161491
-0.033570
0.095592
0.225691
0.356419
0.487468
0.618526
0.749286
0.879436
1.008670
1.136680
1.263162
1.387816
1.510344
1.630453
1.747856
1.862270
1.973419
2.081035
2.184856
2.284630
2.380111
2.471066
2.557271
2.638512
2.714587
2.785307
2.850494
2.909984
2.963628
3.011290
3.052847
3.088196
3.117243
3.139915
3.156153
3.165913
3.169170
3.165913
3.156153
3.139915
3.117243
3.088196
3.052847
3.011290
2.963628
2.909984
2.850494
2.785307
2.714587
2.638512
2.557271
2.471066
2.380111
2.284630
2.184856
2.081035
1.973419
1.862270
1.747856
1.630453
1.510344
1.387816
1.263162
-0.326287
-0.193647
-0.059385
0.076181
0.212730
0.349939
0.487484
0.625040
0.762280
0.898879
1.034515
1.168865
1.301609
1.432433
1.561022
1.687071
1.810277
1.930344
2.046982
2.159909
2.268852
2.373544
2.473730
2.569165
2.659612
2.744849
2.824664
2.898859
2.967247
3.029658
3.085934
3.135933
3.179528
3.216608
3.247079
3.270861
3.287894
3.298132
3.301548
3.298132
3.287894
3.270861
3.247079
3.216608
3.179528
3.135933
3.085934
3.029658
2.967247
2.898859
2.824664
2.744849
2.659612
2.569165
2.473730
2.373544
2.268852
2.159909
2.046982
1.930344
1.810277
1.687071
1.561022
1.432433
1.301609
-0.366673
-0.227449
-0.086521
0.055776
0.199104
0.343126
0.487500
0.631883
0.775935
0.919314
1.061679
1.202693
1.342020
1.479329
1.614290
1.746583
1.875889
2.001897
2.124305
2.242815
2.357141
2.467004
2.572135
2.672278
2.767185
2.856623
2.940370
3.018217
3.089971
3.155451
3.214494
3.266950
3.312687
3.351588
3.383554
3.408504
3.426372
3.437113
3.440696