VARIABLES="X","Y","Z",Mach
ZONE T="Element0"
Nodes=27951, Elements=10403, ZONETYPE=FETRIANGLE
DATAPACKING=BLOCK
VARLOCATION = ([4] = CELLCENTERED)
0.690827
0.695314
0.719999
0.663243
0.994219
0.985090
0.997861
0.996219
0.993465
0.989033
1.000390
1.002181
1.004628
1.011174
1.016073
1.013521
1.008468
0.995169
0.997668
0.999797
1.005945
1.004320
1.002212
1.010554
1.012109
1.014367
1.016318
1.018882
1.027187
1.022766
1.021064
1.025327
1.009298
1.007289
0.995901
0.998285
1.000342
0.988862
0.991767
0.959564
0.966641
0.962483
0.973721
0.979463
0.991813
0.989125
0.990626
0.981819
0.986221
0.976500
0.980929
1.066399
1.002620
1.013475
1.016241
1.018177
1.020235
1.011445
1.008510
1.004524
1.006533
1.043709
1.041487
1.037003
1.035575
1.039454
1.026584
1.029009
1.017906
1.022905
1.024678
1.031087
1.033564
1.031808
1.029359
1.020699
1.022770
1.033219
1.030847
1.039601
1.041763
1.037959
1.035588
1.024456
1.026914
1.029104
1.046657
1.044168
1.049313
1.052296
1.056727
1.061375
1.066064
1.058374
1.061427
1.069511
1.063256
1.060540
1.048977
1.054194
1.052046
1.046398
1.049803
1.048554
1.056224
1.052442
1.046859
1.036922
1.034444
1.043008
1.044856
1.038995
1.040737
1.069718
0.907485
0.900882
0.895003
0.891549
0.868194
0.874320
0.854310
0.849713
0.865738
0.860565
0.870006
0.874876
0.881394
0.885893
0.893319
0.887973
0.880504
0.884274
0.889213
0.903381
0.908872
0.896404
0.899821
0.923626
0.927324
0.932597
0.936559
0.953958
0.941603
0.949199
0.946073
0.929949
0.924296
0.937644
0.942803
0.933763
0.941317
0.946479
0.951487
0.955168
0.960520
0.946623
0.950754
0.958050
0.955236
0.965719
0.969982
0.961769
0.965151
0.986600
0.969216
0.973923
0.983670
0.978551
0.913458
0.920027
0.912646
0.919311
0.936422
0.897374
0.931664
0.926899
0.903664
0.908439
0.922736
0.917750
0.911980
0.876492
0.886861
0.881083
0.834222
0.829939
0.825248
0.819940
0.814887
0.864519
0.872356
0.867520
0.861944
0.858358
0.853043
0.846841
0.831444
0.851001
0.836017
0.840917
0.845696
0.821833
0.826603
0.860714
0.856075
0.838522
0.843452
0.845679
0.809926
0.805596
0.800906
0.664814
0.664095
0.665893
0.667592
0.668393
0.666734
0.669488
0.670407
0.671059
0.675524
0.671939
0.673773
0.674571
0.672983
0.676446
0.677360
0.687594
0.684052
0.684893
0.685931
0.687010
0.689672
0.688728
0.679076
0.682807
0.681505
0.680793
0.679972
0.678023
0.690717
0.693525
0.691578
0.693547
0.698268
0.691541
0.691925
0.690902
0.692312
0.694121
0.699487
0.697182
0.695500
0.698123
0.703077
0.702355
0.721410
0.713339
0.718410
0.708332
0.771471
0.775878
0.754031
0.757237
0.751444
0.767045
0.762558
0.781192
0.772159
0.766161
0.769817
0.776886
0.779282
0.782680
0.787805
0.796279
0.792422
0.791067
0.796124
0.777618
0.769654
0.772723
0.786266
0.781607
0.809465
0.816166
0.812076
0.800575
0.786490
0.795142
0.790318
0.804606
0.799348
0.806440
0.812191
0.816208
0.840048
0.830487
0.836074
0.821957
0.826487
0.704478
0.720389
0.714178
0.724175
0.728207
0.733360
0.738114
0.735849
0.712191
0.727649
0.724107
0.731545
0.729524
0.731841
0.754633
0.741905
0.737242
0.750214
0.746936
0.765096
0.759699
0.763107
0.748968
0.746591
0.742104
0.743794
0.740005
0.730410
0.736374
0.733687
0.740904
0.746330
0.760326
0.752856
0.756417
0.726539
0.570509
0.569786
0.568946
0.571494
0.566267
0.565263
0.566855
0.567894
0.560034
0.560868
0.564375
0.563523
0.561877
0.562621
0.660013
0.657228
0.657910
0.659016
0.640693
0.639721
0.641352
0.642013
0.656242
0.651719
0.651131
0.654529
0.655377
0.652462
0.653647
0.650209
0.642661
0.643910
0.645777
0.648657
0.646623
0.647538
0.644941
0.638709
0.635204
0.635892
0.637980
0.637284
0.598669
0.597642
0.603692
0.604750
0.602512
0.605681
0.599473
0.600375
0.601441
0.594256
0.596727
0.595003
0.595860
0.572455
0.574046
0.573116
0.577266
0.574939
0.576259
0.584520
0.581123
0.581963
0.583552
0.582735
0.580116
0.579415
0.578101
0.585530
0.588516
0.586259
0.587250
0.590794
0.591676
0.589719
0.593212
0.592385
0.607252
0.608037
0.608983
0.609845
0.611145
0.606283
0.612123
0.615810
0.613309
0.615120
0.614421
0.629914
0.633572
0.632662
0.630994
0.631965
0.628225
0.629056
0.616801
0.618890
0.617728
0.626533
0.625549
0.624512
0.627410
0.620598
0.623290
0.621811
0.634388
0.556083
0.554877
0.552397
0.553170
0.553942
0.558444
0.559267
0.557136
0.551467
0.483159
0.481496
0.482154
0.476142
0.477094
0.478698
0.477940
0.480475
0.479505
0.550421
0.549742
0.548932
0.547151
0.547914
0.538123
0.539540
0.536908
0.535670
0.533891
0.534697
0.533127
0.532301
0.529464
0.530368
0.531121
0.546398
0.545346
0.544229
0.543348
0.542602
0.540422
0.541799
0.523485
0.524600
0.527481
0.525843
0.528673
0.522522
0.521575
0.520220
0.519076
0.514758
0.513836
0.517193
0.516478
0.515631
0.518009
0.504896
0.503587
0.509413
0.512883
0.510920
0.510229
0.511981
0.505650
0.506814
0.508582
0.507719
0.497200
0.496314
0.499503
0.497863
0.498592
0.500476
0.502356
0.501414
0.486695
0.484797
0.485699
0.484114
0.494754
0.488314
0.489275
0.487607
0.492684
0.493625
0.491867
0.490260
0.491092
0.662400
0.661429
0.660739
0.707535
1.026982
0.984246
0.964738
1.049779
1.032958
1.026178
1.048845
1.047433
1.062498
1.036230
0.874132
0.864877
0.889056
0.845458
0.854400
0.943466
0.941472
0.955728
0.903613
0.922364
0.918006
0.816965
0.869516
0.860256
0.821659
0.840915
0.831367
0.850870
0.801704
0.835889
0.788488
0.718509
0.740101
0.755627
0.659010
0.612858
0.628157
0.487214
0.484290
0.539461
0.513366
0.526532
0.507353
0.503654
1.050634
0.761858
0.926400
1.002431
1.018932
1.012795
0.996732
0.994386
1.000872
1.055539
1.044246
1.074301
1.077565
1.044163
1.055279
1.012201
1.014084
1.026920
1.032705
1.027100
1.017312
1.034330
1.040992
0.594265
0.617157
0.616080
0.610226
0.606617
0.607090
0.757192
0.758167
0.965810
0.859228
0.690713
0.697265
0.998171
0.996366
0.999216
1.003562
1.003336
0.985304
0.989535
0.982523
0.988042
0.989558
1.027153
1.022270
1.024363
1.005610
1.000914
1.017905
1.019738
1.008096
1.007670
1.014955
1.010902
1.011883
0.960239
0.964208
0.969933
0.976581
0.969829
0.998717
0.995478
0.990497
0.993809
1.055540
1.069042
1.065310
1.066188
1.057448
1.007311
1.008126
1.002968
1.015078
1.029692
1.028751
1.035222
1.031204
1.041873
1.047194
1.050520
1.050527
1.027159
1.047845
1.031855
1.022355
1.039910
1.039099
1.031979
1.013257
1.047090
1.050516
1.050040
1.037821
1.045600
1.038535
1.033837
0.892584
0.889585
0.871473
0.867950
0.850642
0.850370
0.951648
0.940447
0.970416
0.942814
0.962290
0.951486
0.955874
0.974760
0.980576
0.987210
0.986050
0.986727
0.979663
0.901811
0.932576
0.911150
0.912959
0.921194
0.923181
0.907997
0.908594
0.930485
0.916090
0.919567
0.922168
0.915140
0.926862
0.907663
0.880581
0.881506
0.817524
0.870150
0.876783
0.874305
0.869050
0.864877
0.840386
0.814303
0.840939
0.840799
0.830819
0.828292
0.823251
0.837330
0.859210
0.851101
0.854634
0.845681
0.804826
0.692179
0.700172
0.687393
0.688362
0.698470
0.707300
0.715735
0.773366
0.759640
0.748804
0.750450
0.769001
0.758585
0.794388
0.783040
0.830628
0.831329
0.778011
0.783198
0.811842
0.794609
0.788442
0.786767
0.792882
0.797667
0.706395
0.706952
0.718937
0.721201
0.719637
0.721126
0.746040
0.752524
0.748171
0.751100
0.742144
0.740125
0.717683
0.722375
0.721802
0.733616
0.731847
0.751306
0.757084
0.740590
0.750115
0.745350
0.734101
0.740717
0.735623
0.581119
0.590413
0.612804
0.602487
0.604265
0.581077
0.631727
0.640491
0.661028
0.628961
0.638906
0.638063
0.647606
0.654861
0.648566
0.598521
0.588676
0.592467
0.625469
0.626785
0.598373
0.600699
0.594871
0.593308
0.620524
0.623573
0.664983
0.665828
0.632144
0.634311
0.586531
0.578289
0.572041
0.582780
0.554883
0.568971
0.568244
0.559344
0.559884
0.549674
0.547793
0.687785
0.681071
0.675836
0.661176
0.670224
0.658847
0.511680
0.514552
0.504782
0.501560
0.502129
0.496524
0.493201
0.492389
0.485754
0.534373
0.506641
0.521670
0.520431
0.515780
0.533066
0.546292
0.541536
0.553050
0.544402
0.523775
0.513899
0.521702
0.520795
0.511396
0.511594
0.707049
0.706089
0.704639
0.729615
0.783298
0.765311
0.749970
0.744573
0.730004
0.763430
0.640180
0.659185
0.659238
0.686091
0.673796
0.675940
0.688797
0.666418
0.664312
0.666631
0.665154
0.665766
0.664752
0.663427
0.664018
0.665815
0.664513
0.665391
0.676419
0.667085
0.668336
0.667891
0.670236
0.670795
0.669383
0.666568
0.668431
0.668615
0.671279
0.672093
0.844175
0.829471
0.682154
0.672649
0.676327
0.676336
0.667393
0.665079
0.665351
0.671864
0.668783
0.667620
0.670125
0.673253
0.678660
0.680032
0.687296
0.689210
0.774175
0.756560
0.774093
0.774129
0.740202
0.755086
0.755040
0.755365
0.774608
0.831366
0.814047
0.793493
0.793195
0.812431
0.793400
0.812264
0.795984
0.705232
0.708047
0.722931
0.736002
0.721057
0.736084
0.723587
0.735949
0.714597
0.726400
0.752566
0.771095
0.788050
0.745402
0.745435
0.763376
0.763449
0.765350
0.798451
0.779259
0.914360
0.878887
0.992621
0.974474
1.011560
0.973051
1.007971
1.023602
0.975879
1.007100
0.976427
0.993608
0.994719
0.974529
0.974571
0.993490
0.993818
0.969634
0.974651
0.867757
0.850452
0.869521
0.869508
0.821811
0.822155
0.776719
0.799156
0.784770
0.802876
0.820729
0.804411
0.823056
0.783140
0.804102
0.822206
0.823431
0.850441
0.833311
0.850446
0.831356
0.809675
0.869493
0.826258
0.846011
0.869443
0.869467
0.869416
0.830187
0.830827
0.850388
0.850405
0.869489
0.833541
0.851400
0.850168
0.830982
0.813482
0.791788
0.808894
0.794792
0.809013
0.792132
0.816008
0.869384
0.869324
0.869365
0.850346
0.952329
0.940749
0.888554
0.888577
0.888528
0.934722
0.907532
0.919721
0.907570
0.888596
0.935735
0.922060
0.923811
0.908683
0.908033
0.921944
0.952871
0.958543
0.881777
0.895768
0.896902
0.905874
0.917522
0.902351
0.917642
0.947072
0.969927
0.882349
0.939434
0.919859
0.950754
0.929788
0.934278
0.936129
0.917134
0.898127
0.898101
0.915861
0.917279
0.932485
0.937862
0.938264
0.987549
0.966095
0.959393
0.955659
0.952313
0.945551
0.928601
0.958015
0.842710
0.845465
0.860464
0.859967
0.840572
0.839266
0.840947
0.860905
0.858990
0.839228
0.892165
0.879017
0.859977
0.883191
0.863164
0.859745
0.879052
0.898445
0.899767
0.878600
0.879031
0.888518
0.911067
0.909664
0.918461
0.888486
0.905745
0.902485
0.902786
0.888449
0.921977
0.844484
0.859124
0.878640
0.888430
0.938965
0.885726
0.888439
0.887019
0.898644
0.937711
0.900872
0.888383
0.932118
0.900875
0.913696
0.922466
0.938079
0.896648
0.935104
0.901796
0.916690
0.918305
0.918316
0.953836
0.955555
0.955840
0.957905
0.998664
0.973901
1.043191
1.043096
1.062836
1.060427
1.034133
1.012731
1.012688
1.012630
1.031517
0.992514
1.029359
1.026385
1.004623
0.950470
0.992329
0.995208
0.992388
0.996375
0.994876
0.992680
0.992376
0.993675
0.993166
0.995771
0.990868
0.993759
0.996115
0.996130
0.997596
1.001404
0.983810
0.993105
0.992095
0.986115
0.988999
0.983780
0.993455
0.997278
0.986640
0.988952
0.999167
0.986889
0.994723
0.997116
0.991638
0.994086
0.991863
0.998567
0.996187
0.996187
0.989047
0.991427
0.991679
0.993808
0.999781
1.003574
1.002156
1.004311
1.001732
1.000017
1.000873
1.003619
1.002567
1.022681
1.018417
1.017033
1.027599
1.021917
1.020485
1.022915
1.025466
1.025241
1.026500
1.023965
1.020078
1.017859
1.018740
1.012379
1.014610
1.013202
1.008196
1.007557
0.995668
0.998621
1.002968
1.008183
1.003320
1.010835
1.013711
1.011894
1.015800
1.016190
1.018613
1.021096
1.020562
1.024123
1.024990
1.012531
1.019100
1.022598
1.015250
1.016247
1.014063
1.012585
1.015690
1.009280
1.008153
1.006534
1.011762
1.010655
1.009358
1.010558
1.015623
1.008267
1.017988
1.020203
1.012998
1.010887
1.015207
1.012777
1.016462
1.011583
1.009283
1.005900
1.006978
1.010392
1.001150
0.999920
0.998362
1.004381
1.004941
1.002680
1.001800
0.997998
1.004542
1.000695
1.003441
1.007855
1.007007
1.005786
1.011949
1.004882
1.006762
1.010547
1.009362
1.008342
1.007799
1.010337
1.005878
0.999733
0.997691
0.995094
0.997258
0.998430
0.999770
0.998321
1.003848
1.001235
1.004091
0.979524
0.981880
0.979168
0.993761
0.988791
0.992837
0.991243
0.989786
0.989173
0.984286
0.986666
0.955653
0.960039
0.965945
0.961607
0.957864
0.991192
0.987946
0.990367
0.981941
0.986395
0.984172
0.959746
0.969705
0.975107
0.957962
0.966309
0.960390
0.962723
0.964481
0.967554
0.967787
0.972213
0.973266
0.979409
0.967562
0.969635
0.970745
0.981752
0.979477
0.977078
0.974714
0.974680
0.973283
0.977089
0.984238
0.976686
0.980194
0.988804
0.990676
0.979439
0.981851
0.986693
0.983679
0.984175
0.992710
0.976305
1.013017
0.991456
1.069880
1.073880
1.064479
1.069503
1.065054
1.022283
1.062511
1.061961
1.070006
1.040322
1.039506
1.056675
1.069910
0.999662
1.003544
1.004361
1.025022
1.022312
1.008360
1.013005
1.001924
1.002775
1.001395
1.018076
1.008207
1.011960
1.013796
1.015261
1.011838
1.010440
1.020025
1.017839
1.020218
1.019033
1.016851
1.019040
1.014434
1.015131
1.016715
1.017668
1.004998
1.005212
1.003134
1.004237
1.005378
1.007364
1.009051
1.005956
1.004507
1.005431
1.006967
1.009282
1.007605
1.009894
1.010018
1.008332
1.011524
1.012353
1.012611
1.034415
1.029531
1.043846
1.046545
1.048322
1.046205
1.045247
1.044922
1.049897
1.047589
1.051084
1.047157
1.042351
1.041052
1.043147
1.040306
1.037913
1.042761
1.041549
1.041481
1.044066
1.043024
1.039069
1.035680
1.038244
1.034952
1.036775
1.038237
1.036453
1.038358
1.038940
1.027129
1.027286
1.025599
1.028078
1.012871
1.018176
1.014123
1.015153
1.017334
1.016300
1.020471
1.017938
1.015389
1.018201
1.018895
1.019081
1.024619
1.025307
1.022495
1.021977
1.023558
1.021090
1.022016
1.024693
1.023096
1.029762
1.028504
1.030003
1.032840
1.029528
1.034227
1.030575
1.028487
1.032008
1.031100
1.033335
1.030437
1.034182
1.033305
1.031956
1.029483
1.034658
1.026729
1.021205
1.021762
1.022563
1.020899
1.033196
1.035715
1.037957
1.036831
1.024970
1.028939
1.025804
1.027292
1.035570
1.034014
1.034456
1.033205
1.031843
1.030057
1.030831
1.028187
1.031080
1.035683
1.041599
1.041591
1.040476
1.039067
1.037939
1.033139
1.036858
1.035649
1.039830
1.038015
1.034302
1.039180
1.039242
1.040846
1.039199
1.037290
1.033715
1.034819
1.036834
1.033184
1.022453
1.023710
1.024185
1.025801
1.024407
1.023448
1.025554
1.030653
1.028211
1.027482
1.030136
1.022101
1.030835
1.032687
1.027325
1.030555
1.035641
1.034468
1.029328
1.031824
1.033260
1.030471
1.031949
1.029662
1.034162
1.027375
1.036700
1.022467
1.052813
1.048461
1.050750
1.043523
1.045017
1.043842
1.045147
1.048363
1.046707
1.045963
1.052085
1.021610
1.003606
1.022320
1.053949
1.055485
1.060037
1.056574
1.058321
1.063564
1.058385
1.060141
1.068063
1.063857
1.065147
1.055527
1.065382
1.056309
1.065088
1.067811
1.042450
1.038839
1.043710
1.047040
1.055546
1.060479
1.063091
1.065509
1.049657
1.050415
1.053188
1.050118
1.043045
1.047695
1.044137
1.045433
1.046298
1.048004
1.047565
1.048671
1.048248
1.060366
1.058799
1.049698
1.055914
1.058214
1.047694
1.056037
1.053313
1.050892
1.053571
1.043370
1.039200
1.047709
1.047145
1.035755
1.034329
1.036740
1.035072
1.035635
1.042737
1.040853
1.043453
1.041110
1.041612
1.045091
1.046340
1.045404
1.044071
1.045535
1.042710
1.038162
1.036809
1.038610
1.039429
1.038174
1.040070
1.036457
1.046769
1.030873
1.071655
0.898063
0.898437
0.890127
0.899768
0.906458
0.913468
0.910397
0.908098
0.904068
0.901390
0.896483
0.899182
0.897822
0.888433
0.892354
0.888092
0.892225
0.888532
0.896232
0.895394
0.890231
0.893005
0.867352
0.872570
0.851677
0.847209
0.862220
0.856566
0.859906
0.888792
0.870495
0.877995
0.878285
0.883907
0.878024
0.884091
0.893322
0.894914
0.899158
0.907757
0.903251
0.879743
0.859214
0.867635
0.871716
0.850648
0.851955
0.848492
0.860037
0.860585
0.862324
0.864305
0.856991
0.856117
0.886823
0.882254
0.872450
0.880461
0.877008
0.874121
0.881855
0.891947
0.886141
0.877990
0.884045
0.894042
0.886447
0.890730
0.888409
0.873838
0.864679
0.862191
0.871281
0.868382
0.866982
0.879074
0.882591
0.882605
0.877388
0.874620
0.874356
0.879730
0.878458
0.869295
0.896069
0.898804
0.893140
0.881559
0.888857
0.887327
0.890426
0.884302
0.907980
0.906470
0.910318
0.899571
0.896575
0.893328
0.899703
0.902768
0.888601
0.861235
0.850372
0.860043
0.955624
0.953262
0.951243
0.946113
0.931543
0.941002
0.939591
0.950404
0.948246
0.944856
0.942952
0.936910
0.940379
0.935549
0.938881
0.935285
0.926219
0.928973
0.925176
0.936823
0.931663
0.934146
0.939531
0.951917
0.946001
0.942518
0.947752
0.951057
0.941124
0.942290
0.928506
0.933444
0.950961
0.958487
0.967767
0.980546
0.936398
0.945699
0.926152
0.922774
0.927533
0.935470
0.938044
0.945275
0.939624
0.940756
0.937406
0.931637
0.935510
0.931113
0.943645
0.945760
0.948079
0.948407
0.962362
0.961554
0.958536
0.957991
0.950846
0.953537
0.953166
0.955412
0.964987
0.966253
0.970489
0.961985
0.949958
0.951516
0.962635
0.968609
0.967595
0.964914
0.937826
0.946435
0.948408
0.943653
0.941324
0.945404
0.941406
0.960466
0.954785
0.962644
0.957935
0.960406
0.956638
0.955497
0.953006
0.949955
0.952535
0.955896
0.960078
0.957550
0.953930
0.957800
0.953897
0.946724
0.974334
0.972358
0.977120
0.962641
0.964277
0.959414
0.987233
0.972377
0.977141
0.974737
0.965208
0.967958
0.969972
0.967609
0.972443
0.972576
0.984260
0.981904
0.979499
0.981822
0.976060
0.978652
0.986665
0.988061
0.972107
0.934855
0.981433
0.944516
0.961367
0.968374
0.937817
0.916243
0.921720
0.910150
0.907696
0.898852
0.898808
0.931282
0.949657
0.935014
0.953589
0.897883
0.917185
0.917212
0.898149
0.858771
0.898170
0.860740
0.879106
0.879456
0.879105
0.956787
0.917171
0.900573
0.907698
0.908986
0.903495
0.917518
0.915404
0.917771
0.913197
0.917431
0.935097
0.927685
0.929774
0.919673
0.925586
0.920319
0.915139
0.931648
0.934115
0.926063
0.931828
0.900781
0.901225
0.905367
0.903133
0.908375
0.922718
0.933475
0.925303
0.929536
0.929069
0.902815
0.912052
0.905760
0.921792
0.926278
0.923921
0.919877
0.915350
0.915568
0.915492
0.911043
0.909399
0.913004
0.919779
0.916566
0.931827
0.912699
0.922042
0.917641
0.922571
0.904017
0.908890
0.912360
0.927700
0.908228
0.898320
0.879967
0.877668
0.884098
0.883923
0.888804
0.890466
0.841072
0.842451
0.812564
0.814580
0.831225
0.836323
0.831667
0.818161
0.826974
0.821336
0.821934
0.817187
0.813170
0.821818
0.819556
0.819394
0.816006
0.826010
0.820724
0.811225
0.827124
0.842762
0.868815
0.866608
0.879176
0.875125
0.869616
0.871469
0.874643
0.858557
0.861794
0.867363
0.864900
0.849990
0.852645
0.860278
0.863386
0.862032
0.857749
0.865094
0.860212
0.875757
0.869984
0.864875
0.855843
0.845501
0.848259
0.854376
0.845053
0.840860
0.845541
0.840325
0.831883
0.835505
0.829372
0.836493
0.850551
0.827176
0.833834
0.831652
0.846687
0.854894
0.850575
0.840454
0.833534
0.833447
0.839523
0.837527
0.837850
0.844066
0.847953
0.848012
0.843729
0.842519
0.822154
0.830388
0.824220
0.824140
0.828517
0.831829
0.826565
0.835968
0.858196
0.853915
0.852873
0.855378
0.841293
0.846383
0.850296
0.844197
0.835592
0.859234
0.840432
0.845312
0.835874
0.869142
0.831960
0.850923
0.808168
0.798120
0.813332
0.808950
0.803207
0.807352
0.812459
0.802175
0.804489
0.663621
0.663503
0.664532
0.666995
0.667092
0.668025
0.665103
0.665945
0.678255
0.681458
0.678428
0.668594
0.665504
0.665822
0.669383
0.668810
0.667958
0.671111
0.670411
0.669808
0.671339
0.668434
0.667471
0.666281
0.667189
0.667529
0.667609
0.669529
0.666247
0.668665
0.669365
0.670459
0.676147
0.676033
0.674770
0.676793
0.675496
0.670632
0.672189
0.674221
0.674853
0.673024
0.671909
0.672987
0.674012
0.671519
0.676060
0.670366
0.671532
0.670792
0.672503
0.674971
0.672304
0.673138
0.673491
0.674784
0.685182
0.684837
0.683563
0.691016
0.687185
0.690579
0.680300
0.695549
0.675964
0.674986
0.675444
0.673817
0.673346
0.674923
0.675012
0.676050
0.669248
0.669848
0.668432
0.672843
0.674853
0.677038
0.681583
0.675904
0.681379
0.678327
0.675430
0.674934
0.677475
0.676725
0.670593
0.672271
0.672299
0.672712
0.675462
0.673663
0.674003
0.671322
0.673618
0.671037
0.669680
0.670712
0.671475
0.673222
0.676338
0.682949
0.682047
0.678222
0.680454
0.679395
0.681169
0.679180
0.680789
0.680219
0.676483
0.678572
0.677405
0.678843
0.677449
0.678435
0.679893
0.687309
0.691565
0.686046
0.686028
0.682609
0.680719
0.679257
0.682796
0.688659
0.688848
0.689218
0.681141
0.682700
0.683910
0.683217
0.683163
0.691083
0.689883
0.689689
0.690054
0.691264
0.690716
0.684718
0.684748
0.683492
0.685878
0.684568
0.688370
0.688724
0.688605
0.687237
0.687084
0.686154
0.686243
0.685027
0.687169
0.689867
0.687793
0.688817
0.688521
0.689923
0.689777
0.689724
0.692006
0.690797
0.686928
0.688262
0.686128
0.686025
0.687858
0.687963
0.695724
0.692026
0.711521
0.678578
0.677221
0.689271
0.690300
0.690996
0.681681
0.682025
0.680045
0.680324
0.680874
0.679029
0.677451
0.678828
0.688764
0.691051
0.687346
0.686775
0.684229
0.686130
0.685088
0.686837
0.685515
0.685764
0.687997
0.689121
0.679947
0.680348
0.681712
0.681348
0.681848
0.680624
0.681740
0.681225
0.682572
0.683788
0.682702
0.684611
0.685174
0.682871
0.684170
0.682377
0.683710
0.683294
0.688273
0.686876
0.685131
0.687245
0.690762
0.684208
0.687654
0.692623
0.696459
0.699798
0.701050
0.695408
0.690959
0.692470
0.692871
0.697139
0.692355
0.699328
0.679909
0.682716
0.685397
0.682477
0.677032
0.677931
0.678467
0.677891
0.679087
0.679944
0.681530
0.688393
0.691473
0.692819
0.691629
0.692761
0.698990
0.701822
0.692427
0.694117
0.693930
0.691916
0.695977
0.692418
0.693430
0.695488
0.700650
0.696488
0.696970
0.704282
0.699804
0.721359
0.716514
0.701494
0.706284
0.700210
0.698937
0.697023
0.706068
0.716091
0.719499
0.719473
0.712389
0.713237
0.722884
0.717565
0.716269
0.707361
0.697848
0.693814
0.697972
0.701233
0.706828
0.783608
0.825881
0.802380
0.809321
0.745477
0.712985
0.727025
0.769190
0.788412
0.782368
0.764570
0.745543
0.745631
0.759605
0.764628
0.745026
0.764409
0.764487
0.758709
0.767799
0.784147
0.774119
0.751713
0.754546
0.757241
0.759690
0.764693
0.761707
0.767871
0.774103
0.772755
0.768049
0.775151
0.776448
0.754101
0.751753
0.765495
0.761265
0.764473
0.770142
0.773762
0.769181
0.771679
0.766907
0.753555
0.756327
0.759703
0.762146
0.757003
0.764951
0.764977
0.778272
0.765683
0.777555
0.787998
0.790212
0.778788
0.788334
0.786271
0.780547
0.785903
0.780746
0.783561
0.793474
0.784414
0.774539
0.766406
0.775344
0.770871
0.774568
0.771039
0.778690
0.778377
0.780599
0.783273
0.785378
0.798752
0.792967
0.789729
0.797966
0.793900
0.798522
0.786227
0.792268
0.838263
0.840491
0.840259
0.839440
0.821927
0.821730
0.840698
0.783256
0.778710
0.792406
0.795219
0.792587
0.775114
0.774847
0.769586
0.769078
0.783228
0.788860
0.787138
0.783422
0.780820
0.778098
0.790821
0.802470
0.810913
0.793871
0.796709
0.796241
0.805256
0.799462
0.800984
0.802573
0.806869
0.814966
0.809760
0.781667
0.817820
0.809266
0.811180
0.813889
0.814247
0.785379
0.793551
0.795285
0.790985
0.787730
0.802914
0.805249
0.801094
0.800516
0.819954
0.824666
0.821847
0.803889
0.812007
0.810310
0.814285
0.838914
0.829652
0.833299
0.820871
0.823650
0.812918
0.802433
0.806758
0.802138
0.810215
0.815780
0.827379
0.833729
0.819512
0.817057
0.823093
0.830666
0.824845
0.822059
0.804411
0.826292
0.836187
0.822254
0.817653
0.826613
0.830955
0.816901
0.797707
0.808246
0.806323
0.798644
0.802443
0.812153
0.774117
0.793115
0.697939
0.697454
0.699796
0.700386
0.714258
0.722368
0.723801
0.726363
0.732160
0.729277
0.729302
0.736411
0.734452
0.735876
0.741675
0.740537
0.730658
0.718657
0.719318
0.718060
0.706094
0.711422
0.721404
0.724015
0.728015
0.723593
0.734312
0.735858
0.733772
0.735614
0.740587
0.738216
0.739498
0.737609
0.737569
0.721530
0.724077
0.726287
0.727689
0.723920
0.729985
0.725884
0.733405
0.735776
0.732202
0.732507
0.731026
0.733284
0.727040
0.729971
0.728745
0.716239
0.731159
0.722018
0.723604
0.728659
0.726857
0.726460
0.716466
0.742532
0.733489
0.755014
0.744878
0.742919
0.744884
0.735820
0.738159
0.740570
0.738275
0.744110
0.753341
0.749124
0.750110
0.735246
0.715943
0.707367
0.710342
0.699436
0.713905
0.727241
0.738398
0.728739
0.731091
0.735837
0.734063
0.761651
0.757115
0.759689
0.748269
0.749704
0.750436
0.753578
0.748294
0.738267
0.733808
0.741744
0.751681
0.744035
0.752504
0.755997
0.752515
0.750549
0.748417
0.750936
0.747689
0.748989
0.742920
0.743564
0.744129
0.747978
0.746607
0.746198
0.745361
0.740900
0.738598
0.741323
0.738505
0.743390
0.747739
0.750150
0.742979
0.745396
0.741095
0.738225
0.733479
0.736481
0.731578
0.747515
0.743657
0.745498
0.742681
0.745497
0.728670
0.740084
0.735711
0.743167
0.747847
0.762692
0.753314
0.758775
0.759651
0.750040
0.726508
0.729288
0.730822
0.725692
0.731620
0.725011
0.725184
0.722514
0.764535
0.842107
0.935008
0.799429
0.802560
0.783091
0.805628
0.821602
0.821642
0.840209
0.705719
0.723856
0.748750
0.743120
0.741821
0.760662
0.777070
0.780907
0.765984
0.788009
0.759707
0.783026
0.727998
0.766708
0.575752
0.573088
0.570642
0.571480
0.569952
0.569091
0.570583
0.568970
0.567586
0.568120
0.568274
0.568107
0.570959
0.569534
0.569542
0.570365
0.572364
0.570760
0.571559
0.568944
0.570850
0.573038
0.574800
0.573546
0.574211
0.573900
0.576111
0.576724
0.574988
0.575289
0.576047
0.574747
0.576069
0.572987
0.573454
0.572316
0.572614
0.571393
0.572469
0.554163
0.555532
0.554163
0.556351
0.554814
0.567252
0.576493
0.572476
0.569877
0.568994
0.570039
0.572978
0.566427
0.566894
0.570395
0.569104
0.570056
0.567165
0.565629
0.565490
0.566507
0.570381
0.568015
0.569084
0.567418
0.568007
0.566744
0.568565
0.568656
0.570886
0.568012
0.567176
0.566006
0.565620
0.566231
0.571160
0.575798
0.573987
0.582338
0.570140
0.570392
0.573963
0.557855
0.556379
0.558115
0.556179
0.559826
0.556381
0.558052
0.557623
0.555065
0.559254
0.563010
0.561765
0.562556
0.566755
0.563400
0.567124
0.564711
0.561166
0.561712
0.566879
0.562073
0.563269
0.558706
0.560581
0.560317
0.559286
0.559263
0.558895
0.558097
0.557840
0.560567
0.560473
0.564045
0.562840
0.564499
0.561619
0.562011
0.562971
0.564773
0.563673
0.561077
0.564304
0.565860
0.565333
0.564841
0.564735
0.564251
0.562158
0.562922
0.563519
0.566589
0.563327
0.567619
0.565313
0.565698
0.564356
0.627052
0.576122
0.578014
0.577634
0.579799
0.582377
0.586166
0.581087
0.578254
0.582466
0.582584
0.584657
0.585252
0.597306
0.595238
0.601404
0.582714
0.589963
0.585701
0.586331
0.592738
0.631341
0.622908
0.592651
0.615040
0.621376
0.593417
0.602483
0.611092
0.621512
0.611087
0.639810
0.643026
0.637670
0.637446
0.637239
0.635653
0.636061
0.636998
0.638497
0.639177
0.637719
0.634557
0.634726
0.633851
0.634259
0.635762
0.634959
0.636362
0.635630
0.642670
0.634093
0.640045
0.637935
0.657374
0.657992
0.656725
0.656187
0.656454
0.660936
0.660188
0.659128
0.658178
0.658844
0.656625
0.658674
0.658055
0.657288
0.669188
0.671013
0.647794
0.647072
0.648467
0.649652
0.646525
0.645451
0.645670
0.639775
0.640772
0.642215
0.640993
0.640834
0.641774
0.639566
0.639334
0.640339
0.649350
0.644370
0.643973
0.647679
0.646498
0.647388
0.642569
0.641530
0.643200
0.642140
0.645993
0.644696
0.645508
0.645641
0.646547
0.645144
0.644371
0.644065
0.647350
0.643211
0.642996
0.641813
0.642570
0.643253
0.649303
0.649815
0.651827
0.660786
0.659250
0.656641
0.657663
0.656990
0.658473
0.657872
0.658488
0.657339
0.654944
0.655286
0.653987
0.652828
0.653931
0.655474
0.655958
0.656237
0.653042
0.654645
0.654894
0.653694
0.656318
0.654607
0.656454
0.655773
0.654411
0.657576
0.654323
0.653272
0.649791
0.652869
0.651197
0.654074
0.650862
0.650080
0.652031
0.651890
0.655145
0.653554
0.655844
0.654124
0.654651
0.649306
0.649141
0.651527
0.652699
0.653126
0.653845
0.652257
0.649650
0.651425
0.650115
0.651266
0.651045
0.652354
0.650564
0.648737
0.647383
0.647065
0.646254
0.645191
0.648885
0.647672
0.647969
0.646500
0.647657
0.649032
0.648235
0.645642
0.646819
0.647172
0.645279
0.644288
0.651295
0.650515
0.651526
0.652997
0.649734
0.662148
0.658596
0.659162
0.650112
0.651502
0.651981
0.654201
0.656040
0.657014
0.661848
0.653818
0.648554
0.649984
0.639888
0.640932
0.639951
0.639992
0.638873
0.638236
0.636923
0.636216
0.637064
0.638890
0.638267
0.638244
0.647461
0.640925
0.639841
0.642112
0.641450
0.643073
0.641393
0.645043
0.643404
0.640964
0.644443
0.643240
0.643298
0.644413
0.646410
0.649918
0.647732
0.645901
0.648429
0.653830
0.647992
0.649468
0.645117
0.649358
0.638536
0.630456
0.618527
0.620487
0.624083
0.623352
0.631702
0.669038
0.669460
0.635412
0.630401
0.620802
0.652765
0.669116
0.671304
0.670394
0.639208
0.657858
0.659850
0.630436
0.639115
0.650219
0.595755
0.598826
0.596782
0.596907
0.596293
0.597495
0.599203
0.597890
0.598827
0.600284
0.601085
0.601393
0.603753
0.602388
0.603026
0.606220
0.607701
0.605179
0.607217
0.605863
0.605023
0.606290
0.605966
0.604786
0.604501
0.600268
0.601433
0.602809
0.600113
0.603565
0.603279
0.602314
0.601913
0.600763
0.600562
0.599602
0.600632
0.602197
0.601939
0.603708
0.603691
0.603126
0.604624
0.601634
0.605015
0.605060
0.602768
0.604147
0.604842
0.603990
0.606083
0.603969
0.604127
0.605691
0.606283
0.607114
0.606876
0.605278
0.605299
0.595439
0.594383
0.598714
0.596778
0.598351
0.600856
0.602432
0.603442
0.598910
0.598507
0.598533
0.597665
0.597270
0.594581
0.595360
0.596256
0.601631
0.601117
0.602287
0.599665
0.600810
0.600179
0.599792
0.668425
0.650834
0.585760
0.577319
0.573647
0.580665
0.579560
0.575199
0.576175
0.577536
0.573197
0.571702
0.571666
0.583037
0.583012
0.571243
0.579328
0.575089
0.578381
0.575511
0.575975
0.577600
0.578780
0.577545
0.579412
0.576965
0.578368
0.577669
0.576506
0.577039
0.572782
0.575624
0.574050
0.574486
0.573015
0.571531
0.574469
0.572473
0.573331
0.573882
0.578303
0.576518
0.577354
0.577789
0.577415
0.574104
0.575227
0.575972
0.576825
0.576111
0.575357
0.581290
0.575677
0.577897
0.583085
0.588070
0.587676
0.596799
0.591911
0.590436
0.586551
0.586092
0.586584
0.585482
0.587559
0.584526
0.585897
0.585170
0.588746
0.584021
0.583586
0.587484
0.587037
0.587348
0.617261
0.609711
0.620250
0.604979
0.610944
0.616276
0.612511
0.642525
0.628741
0.621937
0.631062
0.651816
0.581906
0.580028
0.581324
0.580492
0.579006
0.579245
0.580990
0.584466
0.586324
0.585267
0.585087
0.583447
0.584007
0.582480
0.578685
0.580894
0.579615
0.579876
0.578759
0.580017
0.583707
0.580989
0.581720
0.581398
0.582165
0.580194
0.584233
0.582574
0.582801
0.584693
0.583799
0.585505
0.584866
0.584694
0.584370
0.580492
0.581801
0.582750
0.583686
0.583539
0.583210
0.582097
0.581931
0.579441
0.580763
0.581346
0.582217
0.581269
0.580457
0.582971
0.583200
0.589904
0.590988
0.590601