VARIABLES="X","Y","Z","CP"
ZONE T="Element0"
Nodes=2196, Elements=33, ZONETYPE=FEQUADRILATERAL
DATAPACKING=BLOCK
VARLOCATION = ([4] = CELLCENTERED)
-0.010750
-0.026042
-0.046015
-0.070871
-0.100864
-0.136303
-0.177547
-0.225011
-0.279168
-0.340554
-0.409775
-0.487507
-0.574510
-0.671632
-0.779815
-0.900109
-1.033680
-1.181819
-1.345960
-1.527687
-1.728758
-1.951112
-2.196898
-2.468486
-2.768498
-3.099829
-3.465676
-3.869569
-4.315403
0.000000
-0.010750
-0.026042
-0.046015
-0.070871
-0.100864
-0.136303
-0.177547
-0.225011
-0.279168
-0.340554
-0.409775
-0.487507
-0.574510
-0.671632
-0.779815
-0.900109
-1.033680
-1.181819
-1.345960
-1.527687
-1.728758
-1.951112
-2.196898
-2.468486
-2.768498
-3.099829
-3.465676
-3.869569
-4.315403
0.000000
0.002497
0.009935
0.021936
0.038184
0.058427
0.082428
0.109947
0.140734
0.869938
0.832879
0.792942
0.750605
0.706341
0.660610
0.613855
0.566501
0.518955
0.471604
0.424815
0.378939
0.334312
0.291254
0.250074
0.211071
0.174531
0.140734
0.109947
0.082428
0.058427
0.038184
0.021936
0.009935
0.002497
0.002497
0.009935
0.021936
0.038184
0.058427
0.082428
0.109947
0.140734
0.869938
0.832879
0.792942
0.750605
0.706341
0.660610
0.613855
0.566501
0.518955
0.471604
0.424815
0.378939
0.334312
0.291254
0.250074
0.211071
0.174531
0.140734
0.109947
0.082428
0.058427
0.038184
0.021936
0.009935
0.002497
-0.008187
-0.000520
0.011841
0.028566
0.049410
0.074135
0.102498
0.134238
0.877103
0.840168
0.800198
0.757666
0.713046
0.666801
0.619384
0.571232
0.522765
0.474388
0.426490
0.379443
0.333605
0.289323
0.246929
0.206746
0.169082
0.134238
0.102498
0.074135
0.049410
0.028566
0.011841
-0.000520
-0.008187
-0.023378
-0.015395
-0.002550
0.014810
0.036439
0.062099
0.091539
0.124489
0.887741
0.850498
0.810052
0.766880
0.721455
0.674250
0.625728
0.576338
0.526521
0.476700
0.427286
0.378675
0.331251
0.285385
0.241436
0.199750
0.160661
0.124489
0.091539
0.062099
0.036439
0.014810
-0.002550
-0.015395
-0.023378
-0.043225
-0.034857
-0.021415
-0.003266
0.019336
0.046150
0.076916
0.111352
0.902037
0.864058
0.822698
0.778434
0.731748
0.683122
0.633032
0.581948
0.530327
0.478617
0.427253
0.376658
0.327242
0.279403
0.233529
0.189992
0.149152
0.111352
0.076916
0.046150
0.019336
-0.003266
-0.021415
-0.034857
-0.043225
-0.067933
-0.059116
-0.044966
-0.025875
-0.002106
0.026093
0.058450
0.094667
0.920189
0.881052
0.838335
0.792520
0.744102
0.693577
0.641439
0.588178
0.534275
0.480204
0.426428
0.373397
0.321552
0.271324
0.223127
0.177364
0.134421
0.094667
0.058450
0.026093
-0.002106
-0.025875
-0.044966
-0.059116
-0.067933
-0.097756
-0.088425
-0.073455
-0.053264
-0.028123
0.001705
0.035935
0.074251
0.942416
0.901696
0.857171
0.809337
0.758702
0.705780
0.651089
0.595143
0.538451
0.481516
0.424832
0.368883
0.314142
0.261073
0.210124
0.161730
0.116307
0.074251
0.035935
0.001705
-0.028123
-0.053264
-0.073455
-0.088425
-0.097756
-0.133001
-0.123088
-0.107181
-0.085719
-0.058991
-0.027273
0.009132
0.049887
0.968960
0.926226
0.879434
0.829095
0.775737
0.719899
0.662124
0.602955
0.542935
0.482600
0.422479
0.363093
0.304953
0.248558
0.194395
0.142932
0.094620
0.049887
0.009132
-0.027273
-0.058991
-0.085719
-0.107181
-0.123088
-0.133001
-0.174027
-0.163457
-0.146485
-0.123574
-0.095028
-0.061140
-0.022234
0.021326
1.000099
0.954910
0.905374
0.852024
0.795414
0.736110
0.674688
0.611726
0.547803
0.483494
0.419368
0.355988
0.293907
0.233664
0.175787
0.120785
0.069144
0.021326
-0.022234
-0.061140
-0.095028
-0.123574
-0.146485
-0.163457
-0.174027
-0.221245
-0.209938
-0.191764
-0.167209
-0.136595
-0.100235
-0.058478
-0.011715
1.036147
0.988043
0.935266
0.878374
0.817953
0.754602
0.688935
0.621571
0.553129
0.484231
0.415490
0.347516
0.280908
0.216253
0.154123
0.095070
0.039624
-0.011715
-0.058478
-0.100235
-0.136595
-0.167209
-0.191764
-0.209938
-0.221245
-0.275126
-0.262994
-0.243469
-0.217059
-0.184106
-0.144948
-0.099960
1.077460
1.025962
0.969419
0.908423
0.843596
0.775579
0.705028
0.632608
0.558988
0.484838
0.410824
0.337608
0.265842
0.196163
0.129196
0.065540
0.005772
-0.049565
-0.099960
-0.144948
-0.184106
-0.217059
-0.243469
-0.262994
-0.275126
-0.336204
-0.323149
-0.302110
-0.273615
-0.238030
-0.195718
-0.147086
1.124444
1.069041
1.008176
0.942478
0.872612
0.799266
0.723144
0.644966
0.565455
0.485337
0.405339
0.326180
0.248570
0.173205
0.100766
0.031907
-0.032743
-0.092592
-0.147086
-0.195718
-0.238030
-0.273615
-0.302110
-0.323149
-0.336204
-0.405081
-0.390996
-0.368263
-0.337433
-0.298896
-0.253043
-0.200318
1.177555
1.117706
1.051923
0.980882
0.905295
0.825905
0.743474
0.658779
0.572607
0.485749
0.398995
0.313132
0.228934
0.147164
0.068563
-0.006151
-0.076294
-0.141217
-0.200318
-0.253043
-0.298896
-0.337433
-0.368263
-0.390996
-0.405081
-0.482430
-0.467199
-0.442575
-0.409136
-0.367297
-0.317482
-0.260173
1.237309
1.172431
1.101090
1.024015
0.941973
0.855768
0.766226
0.674193
0.580526
0.486087
0.391740
0.298345
0.206751
0.117791
0.032279
-0.049002
-0.125301
-0.195911
-0.260173
-0.317482
-0.367297
-0.409136
-0.442575
-0.467199
-0.482430
-0.569007
-0.552500
-0.525772
-0.489423
-0.443899
-0.389660
-0.327231
1.304283
1.233748
1.156158
1.072302
0.983010
0.889153
0.791633
0.691370
0.589299
0.486365
0.383513
0.281685
0.181812
0.084808
-0.008435
-0.097058
-0.180240
-0.257205
-0.327231
-0.389660
-0.443899
-0.489423
-0.525772
-0.552500
-0.569007
-0.665655
-0.647730
-0.618661
-0.579073
-0.529445
-0.470278
-0.402144
1.379125
1.302251
1.217664
1.126214
1.028807
0.926391
0.819947
0.710482
0.599019
0.486594
0.374242
0.262998
0.153883
0.047901
-0.053968
-0.150782
-0.241640
-0.325690
-0.402144
-0.470278
-0.529445
-0.579073
-0.618661
-0.647730
-0.665655
-0.773312
-0.753814
-0.722144
-0.678957
-0.624766
-0.560117
-0.485635
1.537204
1.462557
1.378604
1.286202
1.186277
1.079814
0.967847
0.851448
0.731721
0.609787
0.486782
0.363843
0.242107
0.122697
0.006717
-0.104758
-0.210691
-0.310093
-0.402029
-0.485635
-0.560117
-0.624766
-0.678957
-0.722144
-0.753814
-0.773312
-0.893023
-0.871780
-0.837225
-0.790042
-0.730783
-0.660045
-0.578511
1.637025
1.555384
1.463545
1.362439
1.253074
1.136526
1.013926
0.886447
0.755299
0.621713
0.486936
0.352221
0.218816
0.087957
-0.039140
-0.161293
-0.277362
-0.386259
-0.486960
-0.578511
-0.660045
-0.730783
-0.790042
-0.837225
-0.871780
-0.893023
-1.025947
-1.002770
-0.965016
-0.913401
-0.848522
-0.771029
-0.681670
1.747919
1.658502
1.557895
1.447111
1.327252
1.199495
1.065076
0.925285
0.781447
0.634916
0.487063
0.339267
0.192903
0.049332
-0.090108
-0.224116
-0.351437
-0.470874
-0.581301
-0.681670
-0.771029
-0.848522
-0.913401
-0.965016
-1.002770
-1.025947
-1.173370
-1.148052
-1.106754
-1.050229
-0.979121
-0.894140
-0.796108
1.870957
1.772906
1.662563
1.541036
1.409529
1.269330
1.121796
0.968340
0.810421
0.649526
0.487167
0.324861
0.164123
0.006452
-0.146678
-0.293832
-0.433630
-0.564754
-0.685963
-0.796108
-0.894140
-0.979121
-1.050229
-1.106754
-1.148052
-1.173370
-1.336718
-1.309030
-1.263809
-1.201847
-1.123841
-1.030568
-0.922930
2.007324
1.899699
1.778561
1.645123
1.500701
1.346709
1.184634
1.016031
0.842503
0.665690
0.487253
0.308866
0.132199
-0.041096
-0.209393
-0.371113
-0.524733
-0.668803
-0.801957
-0.922930
-1.030568
-1.123841
-1.201847
-1.263809
-1.309030
-1.336718
-1.517569
-1.487259
-1.437698
-1.369720
-1.284081
-1.181630
-1.063359
2.158335
2.040104
1.907009
1.760375
1.601649
1.432378
1.254199
1.068820
0.878007
0.683563
0.487323
0.291130
0.096826
-0.093767
-0.278857
-0.456702
-0.625624
-0.784025
-0.930401
-1.063359
-1.181630
-1.284081
-1.369720
-1.437698
-1.487259
-1.517569
-1.717670
-1.684461
-1.630100
-1.555469
-1.461385
-1.348783
-1.218751
2.325446
2.195475
2.049145
1.887906
1.713346
1.527165
1.331163
1.127219
0.917275
0.703323
0.487381
0.271484
0.057664
-0.152069
-0.355739
-0.551425
-0.737276
-0.911531
-1.072534
-1.218751
-1.348783
-1.461385
-1.555469
-1.630100
-1.684461
-1.717670
-1.938953
-1.902540
-1.842873
-1.760886
-1.657468
-1.533642
-1.390604
2.510269
2.367312
2.206340
2.028946
1.836872
1.631987
1.416271
1.191791
0.960689
0.725159
0.487429
0.249741
0.014338
-0.216562
-0.440779
-0.656193
-0.860765
-1.052552
-1.229728
-1.390604
-1.533642
-1.657468
-1.760886
-1.842873
-1.902540
-1.938953
-2.183554
-2.143600
-2.078071
-1.987954
-1.874219
-1.737989
-1.580578
2.714587
2.557271
2.380111
2.184856
1.973419
1.747856
1.510344
1.263162
1.008670
0.749286
0.487468
0.225691
-0.033570
-0.287868
-0.534796
-0.772018
-0.997282
-1.208447
-1.403499
-1.580578
-1.737989
-1.874219
-1.987954
-2.078071
-2.143600
-2.183554
-2.453835
-2.409969
-2.337962
-2.238865
-2.113732
-1.963796
-1.790505
3.089971
2.940370
2.767185
2.572135
2.357141
2.124305
1.875889
1.614290
1.342020
1.061679
0.775935
0.487500
0.199104
-0.086521
-0.366673
-0.638698
-0.900016
-1.148143
-1.380719
-1.595524
-1.790505
-1.963796
-2.113732
-2.238865
-2.337962
-2.409969
-2.453835
-2.752402
-2.704217
-2.625056
-2.516039
-2.378316
-2.213242
-2.022410
3.354526
3.189795
2.999079
2.784264
2.547462
2.290985
2.017322
1.729114
1.429128
1.120231
0.805367
0.487526
0.169725
-0.145024
-0.453737
-0.753485
-1.041420
-1.314804
-1.571031
-1.807654
-2.022410
-2.213242
-2.378316
-2.516039
-2.625056
-2.704217
-2.752402
-3.082138
-3.029183
-2.942122
-2.822150
-2.670525
-2.488734
-2.278530
3.646710
3.465268
3.255189
3.018544
2.757656
2.475068
2.173520
1.855923
1.525326
1.184890
0.837864
0.487548
0.137270
-0.209644
-0.549899
-0.880264
-1.197595
-1.498871
-1.781217
-2.041935
-2.278530
-2.488734
-2.670525
-2.822150
-2.942122
-3.029183
-3.082138
-3.446224
-3.388002
-3.292219
-3.160153
-2.993178
-2.792928
-2.561336
3.969341
3.769447
3.537986
3.277236
2.989750
2.678329
2.345991
1.995941
1.631542
1.256281
0.873741
0.487565
0.101427
-0.281002
-0.656086
-1.020258
-1.370047
-1.702121
-2.013307
-2.300629
-2.561336
-2.792928
-2.993178
-3.160153
-3.292219
-3.388002
-3.446224
-3.848172
-3.784137
-3.678725
-3.533308
-3.349387
-3.128760
-2.873556
4.325532
4.105266
3.850197
3.562833
3.245983
2.902730
2.536397
2.150519
1.748802
1.335093
0.913346
0.487580
0.061851
-0.359787
-0.773323
-1.174816
-1.560439
-1.926512
-2.269537
-2.586230
-2.873556
-3.128760
-3.349387
-3.533308
-3.678725
-3.784137
-3.848172
4.718719
4.475962
4.194835
3.878093
3.528827
3.150435
2.746577
2.321148
1.878237
1.422087
0.957059
0.487592
0.018161
-0.446759
-0.902738
-1.345429
-1.770607
-2.174211
-2.552379
-2.901492
-3.218202
-3.499469
-3.742588
-3.945214
-4.105368
-4.221408
-4.291860
5.152692
4.885113
4.575223
4.226054
3.841011
3.423833
2.978557
2.509475
2.021095
1.518101
1.005304
0.487602
-0.030064
-0.542755
-1.045582
-1.533744
-2.002578
-2.447605
-2.864563
-3.249458
-3.598598
-3.908631
-4.176575
-4.399845
-4.576265
-4.704034
5.631639
5.336666
4.995031
4.610075
4.185546
3.725563
3.234575
2.717315
2.178756
1.624063
1.058545
0.487610
-0.083290
-0.648703
-1.203230
-1.741575
-2.258591
-2.749331
-3.209098
-3.633482
-4.018413
-4.360193
-4.655534
-4.901587
-5.095957
-5.236671
6.160180
5.834974
5.458308
5.033859
4.565754
4.058535
3.517102
2.946676
2.352740
1.740994
1.117297
0.487616
-0.142029
-0.765622
-1.377204
-1.970927
4.985305
4.425960
3.828862
3.199768
2.544726
1.870023
1.182127
0.487622
-0.206848
-0.894642
-1.569182
-2.224014
2.012395
1.253660
0.487626
-0.278373
-1.037006
-0.008187
-0.000520
0.011841
0.028566
0.049410
0.074135
0.102498
0.134238
0.877103
0.840168
0.800198
0.757666
0.713046
0.666801
0.619384
0.571232
0.522765
0.474388
0.426490
0.379443
0.333605
0.289323
0.246929
0.206746
0.169082
0.134238
0.102498
0.074135
0.049410
0.028566
0.011841
-0.000520
-0.008187
-0.023378
-0.015395
-0.002550
0.014810
0.036439
0.062099
0.091539
0.124489
0.887741
0.850498
0.810052
0.766880
0.721455
0.674250
0.625728
0.576338
0.526521
0.476700
0.427286
0.378675
0.331251
0.285385
0.241436
0.199750
0.160661
0.124489
0.091539
0.062099
0.036439
0.014810
-0.002550
-0.015395
-0.023378
-0.043225
-0.034857
-0.021415
-0.003266
0.019336
0.046150
0.076916
0.111352
0.902037
0.864058
0.822698
0.778434
0.731748
0.683122
0.633032
0.581948
0.530327
0.478617
0.427253
0.376658
0.327242
0.279403
0.233529
0.189992
0.149152
0.111352
0.076916
0.046150
0.019336
-0.003266
-0.021415
-0.034857
-0.043225
-0.067933
-0.059116
-0.044966
-0.025875
-0.002106
0.026093
0.058450
0.094667
0.920189
0.881052
0.838335
0.792520
0.744102
0.693577
0.641439
0.588178
0.534275
0.480204
0.426428
0.373397
0.321552
0.271324
0.223127
0.177364
0.134421
0.094667
0.058450
0.026093
-0.002106
-0.025875
-0.044966
-0.059116
-0.067933
-0.097756
-0.088425
-0.073455
-0.053264
-0.028123
0.001705
0.035935
0.074251
0.942416
0.901696
0.857171
0.809337
0.758702
0.705780
0.651089
0.595143
0.538451
0.481516
0.424832
0.368883
0.314142
0.261073
0.210124
0.161730
0.116307
0.074251
0.035935
0.001705
-0.028123
-0.053264
-0.073455
-0.088425
-0.097756
-0.133001
-0.123088
-0.107181
-0.085719
-0.058991
-0.027273
0.009132
0.049887
0.968960
0.926226
0.879434
0.829095
0.775737
0.719899
0.662124
0.602955
0.542935
0.482600
0.422479
0.363093
0.304953
0.248558
0.194395
0.142932
0.094620
0.049887
0.009132
-0.027273
-0.058991
-0.085719
-0.107181
-0.123088
-0.133001
-0.174027
-0.163457
-0.146485
-0.123574
-0.095028
-0.061140
-0.022234
0.021326
1.000099
0.954910
0.905374
0.852024
0.795414
0.736110
0.674688
0.611726
0.547803
0.483494
0.419368
0.355988
0.293907
0.233664
0.175787
0.120785
0.069144
0.021326
-0.022234
-0.061140
-0.095028
-0.123574
-0.146485
-0.163457
-0.174027
-0.221245
-0.209938
-0.191764
-0.167209
-0.136595
-0.100235
-0.058478
-0.011715
1.036147
0.988043
0.935266
0.878374
0.817953
0.754602
0.688935
0.621571
0.553129
0.484231
0.415490
0.347516
0.280908
0.216253
0.154123
0.095070
0.039624
-0.011715
-0.058478
-0.100235
-0.136595
-0.167209
-0.191764
-0.209938
-0.221245
-0.275126
-0.262994
-0.243469
-0.217059
-0.184106
-0.144948
-0.099960
1.077460
1.025962
0.969419
0.908423
0.843596
0.775579
0.705028
0.632608
0.558988
0.484838
0.410824
0.337608
0.265842
0.196163
0.129196
0.065540
0.005772
-0.049565
-0.099960
-0.144948
-0.184106
-0.217059
-0.243469
-0.262994
-0.275126
-0.336204
-0.323149
-0.302110
-0.273615
-0.238030
-0.195718
-0.147086
1.124444
1.069041
1.008176
0.942478
0.872612
0.799266
0.723144
0.644966
0.565455
0.485337
0.405339
0.326180
0.248570
0.173205
0.100766
0.031907
-0.032743
-0.092592
-0.147086
-0.195718
-0.238030
-0.273615
-0.302110
-0.323149
-0.336204
-0.405081
-0.390996
-0.368263
-0.337433
-0.298896
-0.253043
-0.200318
1.177555
1.117706
1.051923
0.980882
0.905295
0.825905
0.743474
0.658779
0.572607
0.485749
0.398995
0.313132
0.228934
0.147164
0.068563
-0.006151
-0.076294
-0.141217
-0.200318
-0.253043
-0.298896
-0.337433
-0.368263
-0.390996
-0.405081
-0.482430
-0.467199
-0.442575
-0.409136
-0.367297
-0.317482
-0.260173
1.237309
1.172431
1.101090
1.024015
0.941973
0.855768
0.766226
0.674193
0.580526
0.486087
0.391740
0.298345
0.206751
0.117791
0.032279
-0.049002
-0.125301
-0.195911
-0.260173
-0.317482
-0.367297
-0.409136
-0.442575
-0.467199
-0.482430
-0.569007
-0.552500
-0.525772
-0.489423
-0.443899
-0.389660
-0.327231
1.304283
1.233748
1.156158
1.072302
0.983010
0.889153
0.791633
0.691370
0.589299
0.486365
0.383513
0.281685
0.181812
0.084808
-0.008435
-0.097058
-0.180240
-0.257205
-0.327231
-0.389660
-0.443899
-0.489423
-0.525772
-0.552500
-0.569007
-0.665655
-0.647730
-0.618661
-0.579073
-0.529445
-0.470278
-0.402144
1.379125
1.302251
1.217664
1.126214
1.028807
0.926391
0.819947
0.710482
0.599019
0.486594
0.374242
0.262998
0.153883
0.047901
-0.053968
-0.150782
-0.241640
-0.325690
-0.402144
-0.470278
-0.529445
-0.579073
-0.618661
-0.647730
-0.665655
-0.773312
-0.753814
-0.722144
-0.678957
-0.624766
-0.560117
-0.485635
1.537204
1.462557
1.378604
1.286202
1.186277
1.079814
0.967847
0.851448
0.731721
0.609787
0.486782
0.363843
0.242107
0.122697
0.006717
-0.104758
-0.210691
-0.310093
-0.402029
-0.485635
-0.560117
-0.624766
-0.678957
-0.722144
-0.753814
-0.773312
-0.893023
-0.871780
-0.837225
-0.790042
-0.730783
-0.660045
-0.578511
1.637025
1.555384
1.463545
1.362439
1.253074
1.136526
1.013926
0.886447
0.755299
0.621713
0.486936
0.352221
0.218816
0.087957
-0.039140
-0.161293
-0.277362
-0.386259
-0.486960
-0.578511
-0.660045
-0.730783
-0.790042
-0.837225
-0.871780
-0.893023
-1.025947
-1.002770
-0.965016
-0.913401
-0.848522
-0.771029
-0.681670
1.747919
1.658502
1.557895
1.447111
1.327252
1.199495
1.065076
0.925285
0.781447
0.634916
0.487063
0.339267
0.192903
0.049332
-0.090108
-0.224116
-0.351437
-0.470874
-0.581301
-0.681670
-0.771029
-0.848522
-0.913401
-0.965016
-1.002770
-1.025947
-1.173370
-1.148052
-1.106754
-1.050229
-0.979121
-0.894140
-0.796108
1.870957
1.772906
1.662563
1.541036
1.409529
1.269330
1.121796
0.968340
0.810421
0.649526
0.487167
0.324861
0.164123
0.006452
-0.146678
-0.293832
-0.433630
-0.564754
-0.685963
-0.796108
-0.894140
-0.979121
-1.050229
-1.106754
-1.148052
-1.173370
-1.336718
-1.309030
-1.263809
-1.201847
-1.123841
-1.030568
-0.922930
2.007324
1.899699
1.778561
1.645123
1.500701
1.346709
1.184634
1.016031
0.842503
0.665690
0.487253
0.308866
0.132199
-0.041096
-0.209393
-0.371113
-0.524733
-0.668803
-0.801957
-0.922930
-1.030568
-1.123841
-1.201847
-1.263809
-1.309030
-1.336718
-1.517569
-1.487259
-1.437698
-1.369720
-1.284081
-1.181630
-1.063359
2.158335
2.040104
1.907009
1.760375
1.601649
1.432378
1.254199
1.068820
0.878007
0.683563
0.487323
0.291130
0.096826
-0.093767
-0.278857
-0.456702
-0.625624
-0.784025
-0.930401
-1.063359
-1.181630
-1.284081
-1.369720
-1.437698
-1.487259
-1.517569
-1.717670
-1.684461
-1.630100
-1.555469
-1.461385
-1.348783
-1.218751
2.325446
2.195475
2.049145
1.887906
1.713346
1.527165
1.331163
1.127219
0.917275
0.703323
0.487381
0.271484
0.057664
-0.152069
-0.355739
-0.551425
-0.737276
-0.911531
-1.072534
-1.218751
-1.348783
-1.461385
-1.555469
-1.630100
-1.684461
-1.717670
-1.938953
-1.902540
-1.842873
-1.760886
-1.657468
-1.533642
-1.390604
2.510269
2.367312
2.206340
2.028946
1.836872
1.631987
1.416271
1.191791
0.960689
0.725159
0.487429
0.249741
0.014338
-0.216562
-0.440779
-0.656193
-0.860765
-1.052552
-1.229728
-1.390604
-1.533642
-1.657468
-1.760886
-1.842873
-1.902540
-1.938953
-2.183554
-2.143600
-2.078071
-1.987954
-1.874219
-1.737989
-1.580578
2.714587
2.557271
2.380111
2.184856
1.973419
1.747856
1.510344
1.263162
1.008670
0.749286
0.487468
0.225691
-0.033570
-0.287868
-0.534796
-0.772018
-0.997282
-1.208447
-1.403499
-1.580578
-1.737989
-1.874219
-1.987954
-2.078071
-2.143600
-2.183554
-2.453835
-2.409969
-2.337962
-2.238865
-2.113732
-1.963796
-1.790505
3.089971
2.940370
2.767185
2.572135
2.357141
2.124305
1.875889
1.614290
1.342020
1.061679
0.775935
0.487500
0.199104
-0.086521
-0.366673
-0.638698
-0.900016
-1.148143
-1.380719
-1.595524
-1.790505
-1.963796
-2.113732
-2.238865
-2.337962
-2.409969
-2.453835
-2.752402
-2.704217
-2.625056
-2.516039
-2.378316
-2.213242
-2.022410
3.354526
3.189795
2.999079
2.784264
2.547462
2.290985
2.017322
1.729114
1.429128
1.120231
0.805367
0.487526
0.169725
-0.145024
-0.453737
-0.753485
-1.041420
-1.314804
-1.571031
-1.807654
-2.022410
-2.213242
-2.378316
-2.516039
-2.625056
-2.704217
-2.752402
-3.082138
-3.029183
-2.942122
-2.822150
-2.670525
-2.488734
-2.278530
3.646710
3.465268
3.255189
3.018544
2.757656
2.475068
2.173520
1.855923
1.525326
1.184890
0.837864
0.487548
0.137270
-0.209644
-0.549899
-0.880264
-1.197595
-1.498871
-1.781217
-2.041935
-2.278530
-2.488734
-2.670525
-2.822150
-2.942122
-3.029183
-3.082138
-3.446224
-3.388002
-3.292219
-3.160153
-2.993178
-2.792928
-2.561336
3.969341
3.769447
3.537986
3.277236
2.989750
2.678329
2.345991
1.995941
1.631542
1.256281
0.873741
0.487565
0.101427
-0.281002
-0.656086
-1.020258
-1.370047
-1.702121
-2.013307
-2.300629
-2.561336
-2.792928
-2.993178
-3.160153
-3.292219
-3.388002
-3.446224
-3.848172
-3.784137
-3.678725
-3.533308
-3.349387
-3.128760
-2.873556
4.325532
4.105266
3.850197
3.562833
3.245983
2.902730
2.536397
2.150519
1.748802
1.335093
0.913346
0.487580
0.061851
-0.359787
-0.773323
-1.174816
-1.560439
-1.926512
-2.269537
-2.586230
-2.873556
-3.128760
-3.349387
-3.533308
-3.678725
-3.784137
-3.848172
4.718719
4.475962
4.194835
3.878093
3.528827
3.150435
2.746577
2.321148
1.878237
1.422087
0.957059
0.487592
0.018161
-0.446759
-0.902738
-1.345429
-1.770607
-2.174211
-2.552379
-2.901492
-3.218202
-3.499469
-3.742588
-3.945214
-4.105368
-4.221408
-4.291860
5.152692
4.885113
4.575223
4.226054
3.841011
3.423833
2.978557
2.509475
2.021095
1.518101
1.005304
0.487602
-0.030064
-0.542755
-1.045582
-1.533744
-2.002578
-2.447605
-2.864563
-3.249458
-3.598598
-3.908631
-4.176575
-4.399845
-4.576265
-4.704034
5.631639
5.336666
4.995031
4.610075
4.185546
3.725563
3.234575
2.717315
2.178756
1.624063
1.058545
0.487610
-0.083290
-0.648703
-1.203230
-1.741575
-2.258591
-2.749331
-3.209098
-3.633482
-4.018413
-4.360193
-4.655534
-4.901587
-5.095957
-5.236671
6.160180
5.834974
5.458308
5.033859
4.565754
4.058535
3.517102
2.946676
2.352740
1.740994
1.117297
0.487616
-0.142029
-0.765622
-1.377204
-1.970927
4.985305
4.425960
3.828862
3.199768
2.544726
1.870023
1.182127
0.487622
-0.206848
-0.894642
-1.569182
-2.224014
2.012395
1.253660
0.487626
-0.278373
-1.037006
0.000000
0.000000
0.000000
0.000000
0.000000
0.000000
0.000000
0.000000
0.000000
0.000000
0.000000
0.000000
0.000000
0.000000
0.000000
0.000000
0.000000
0.000000
0.000000
0.000000
0.000000
0.000000
0.000000
0.000000
0.000000
0.000000
0.000000
0.000000
0.000000
0.000000
0.000000
0.000000
0.000000
0.000000
0.000000
0.000000
0.000000
0.000000
0.000000
0.000000
0.000000
0.000000
0.000000
0.000000
0.000000
0.000000
0.000000
0.000000
0.000000
0.000000
0.000000
0.000000
0.000000
0.000000
0.000000
0.000000
0.000000
0.000000
0.000000
0.000000
0.008712
0.016984
0.024626
0.031625
0.037956
0.043572
0.048424
0.052462
-0.018156
-0.022517
-0.027010
-0.031540
-0.036019
-0.040361
-0.044480
-0.048290
-0.051705
-0.054641
-0.057014
-0.058745
-0.059761
-0.060000
-0.059414
-0.057970
-0.055651
-0.052462
-0.048424
-0.043572
-0.037956
-0.031625
-0.024626
-0.016984
-0.008712
0.008712
0.016984
0.024626
0.031625
0.037956
0.043572
0.048424
0.052462
-0.018156
-0.022517
-0.027010
-0.031540
-0.036019
-0.040361
-0.044480
-0.048290
-0.051705
-0.054641
-0.057014
-0.058745
-0.059761
-0.060000
-0.059414
-0.057970
-0.055651
-0.052462
-0.048424
-0.043572
-0.037956
-0.031625
-0.024626
-0.016984
-0.008712
0.013300
0.026096
0.038147
0.049402
0.059807
0.069295
0.077790
0.085223
-0.053086
-0.060749
-0.068101
-0.075041
-0.081476
-0.087319
-0.092488
-0.096900
-0.100479
-0.103149
-0.104840
-0.105487
-0.105032
-0.103432
-0.100655
-0.096689
-0.091537
-0.085223
-0.077790
-0.069295
-0.059807
-0.049402
-0.038147
-0.026096
-0.013300
0.017977
0.035407
0.052001
0.067659
0.082290
0.095795
0.108070
0.119020
-0.087962
-0.099085
-0.109461
-0.118977
-0.127531
-0.135030
-0.141390
-0.146532
-0.150382
-0.152874
-0.153946
-0.153548
-0.151637
-0.148185
-0.143182
-0.136632
-0.128563
-0.119020
-0.108070
-0.095795
-0.082290
-0.067659
-0.052001
-0.035407
-0.017977
0.022814
0.045043
0.066351
0.086590
0.105626
0.123319
0.139536
0.154149
-0.123215
-0.137971
-0.151545
-0.163809
-0.174646
-0.183956
-0.191647
-0.197639
-0.201860
-0.204250
-0.204756
-0.203338
-0.199969
-0.194638
-0.187352
-0.178139
-0.167048
-0.154149
-0.139536
-0.123319
-0.105626
-0.086590
-0.066351
-0.045043
-0.022814
0.027867
0.055112
0.081353
0.106389
0.130040
0.152126
0.172474
0.190923
-0.159268
-0.177847
-0.194810
-0.210004
-0.223297
-0.234574
-0.243736
-0.250696
-0.255384
-0.257741
-0.257721
-0.255296
-0.250452
-0.243195
-0.233551
-0.221571
-0.207329
-0.190923
-0.172474
-0.152126
-0.130040
-0.106389
-0.081353
-0.055112
-0.027867
0.033191
0.065721
0.097158
0.127250
0.155768
0.182485
0.207187
0.229674
-0.196541
-0.219158
-0.239717
-0.258040
-0.273973
-0.287382
-0.298158
-0.306205
-0.311450
-0.313835
-0.313322
-0.309888
-0.303536
-0.294288
-0.282190
-0.267317
-0.249769
-0.229674
-0.207187
-0.182485
-0.155768
-0.127250
-0.097158
-0.065721
-0.033191
0.038840
0.076974
0.113922
0.149375
0.183053
0.214679
0.243995
0.270760
-0.235453
-0.262352
-0.286741
-0.308411
-0.327181
-0.342900
-0.355439
-0.364694
-0.370586
-0.373056
-0.372070
-0.367615
-0.359706
-0.348381
-0.333711
-0.315792
-0.294755
-0.270760
-0.243995
-0.214679
-0.183053
-0.149375
-0.113922
-0.076974
-0.038840
0.044867
0.088981
0.131805
0.172975
0.212153
0.249012
0.283243
0.314560
-0.276428
-0.307888
-0.336369
-0.361628
-0.383455
-0.401673
-0.416135
-0.426724
-0.433353
-0.435961
-0.434515
-0.429013
-0.419480
-0.405974
-0.388587
-0.367443
-0.342703
-0.314560
-0.283243
-0.249012
-0.212153
-0.172975
-0.131805
-0.088981
-0.044867
0.051332
0.101857
0.150979
0.198274
0.243344
0.285806
0.325298
0.361484
-0.319900
-0.356239
-0.389110
-0.418229
-0.443354
-0.464279
-0.480836
-0.492892
-0.500350
-0.503144
-0.501245
-0.494656
-0.483417
-0.467604
-0.447330
-0.422751
-0.394058
-0.361484
-0.325298
-0.285806
-0.243344
-0.198274
-0.150979
-0.101857
-0.051332
0.058295
0.115723
0.171626
0.225512
0.276921
0.325408
0.370555
-0.366321
-0.407901
-0.445496
-0.478779
-0.507469
-0.531331
-0.550170
-0.563836
-0.572219
-0.575248
-0.572894
-0.565167
-0.552120
-0.533849
-0.510492
-0.482234
-0.449303
-0.411972
-0.370555
-0.325408
-0.276921
-0.225512
-0.171626
-0.115723
-0.058295
0.065823
0.130712
0.193940
0.254946
0.313201
0.368194
0.419443
-0.416164
-0.463396
-0.506092
-0.543878
-0.576433
-0.603485
-0.624812
-0.640242
-0.649651
-0.652962
-0.650144
-0.641215
-0.626240
-0.605337
-0.578670
-0.546455
-0.508960
-0.466502
-0.419443
-0.368194
-0.313201
-0.254946
-0.193940
-0.130712
-0.065823
0.073986
0.146965
0.218135
0.286858
0.352529
0.414568
0.472425
-0.469930
-0.523278
-0.571500
-0.614170
-0.650922
-0.681444
-0.705485
-0.722849
-0.733393
-0.737032
-0.733734
-0.723525
-0.706484
-0.682748
-0.652511
-0.616024
-0.573596
-0.525590
-0.472425
-0.414568
-0.352529
-0.286858
-0.218135
-0.146965
-0.073986
0.082863
0.164638
0.244441
0.321549
0.395279
0.464973
0.530006
-0.528155
-0.588139
-0.642363
-0.690344
-0.731663
-0.765969
-0.792974
-0.812454
-0.824250
-0.828265
-0.824467
-0.812887
-0.793618
-0.766821
-0.732719
-0.691602
-0.643824
-0.589800
-0.530006
-0.464973
-0.395279
-0.321549
-0.244441
-0.164638
-0.082863
0.092538
0.183899
0.273108
0.359352
0.441860
0.519889
0.592736
-0.591413
-0.658619
-0.719378
-0.773144
-0.819445
-0.857880
-0.888124
-0.909924
-0.923100
-0.927541
-0.923215
-0.910157
-0.888477
-0.858359
-0.820061
-0.773913
-0.720317
-0.659745
-0.592736
-0.519889
-0.441860
-0.359352
-0.273108
-0.183899
-0.092538
0.103103
0.204932
0.304410
0.400628
0.492717
0.579842
0.661213
-0.660324
-0.735407
-0.803296
-0.863378
-0.915119
-0.958069
-0.991859
-1.016203
-1.030895
-1.035817
-1.030927
-1.016269
-0.991971
-0.958242
-0.915375
-0.863744
-0.803806
-0.736093
-0.661213
-0.579842
-0.492717
-0.400628
-0.304410
-0.204932
-0.103103
0.114660
0.227938
0.338647
0.445771
0.548336
0.645406
0.736095
-0.644642
-0.735562
-0.819251
-0.894934
-0.961922
-1.019616
-1.067507
-1.105181
-1.132315
-1.148678
-1.154134
-1.148640
-1.132246
-1.105096
-1.067429
-1.019575
-0.961958
-0.895092
-0.819577
-0.736095
-0.645406
-0.548336
-0.445771
-0.338647
-0.227938
-0.114660
0.127320
0.253137
0.376148
0.495216
0.609251
0.717210
0.818101
-0.716724
-0.817860
-0.910968
-0.995182
-1.069733
-1.133947
-1.187254
-1.229187
-1.259384
-1.277584
-1.283636
-1.277489
-1.259203
-1.228940
-1.186968
-1.133662
-1.069497
-0.995051
-0.910997
-0.818101
-0.717210
-0.609251
-0.495216
-0.376148
-0.253137
-0.127320
0.141203
0.280772
0.417272
0.549435
0.676048
0.795944
0.908017
-0.795685
-0.908016
-1.011447
-1.105014
-1.187855
-1.259219
-1.318467
-1.365075
-1.398636
-1.418858
-1.425569
-1.418716
-1.398363
-1.364694
-1.318012
-1.258734
-1.187397
-1.104645
-1.011233
-0.908017
-0.795944
-0.676048
-0.549435
-0.417272
-0.280772
-0.141203
0.156444
0.311108
0.462414
0.608951
0.749368
0.882365
1.006709
-0.882293
-1.006905
-1.121662
-1.225491
-1.317431
-1.396644
-1.462415
-1.514158
-1.551415
-1.573862
-1.581304
-1.573682
-1.551068
-1.513668
-1.461821
-1.395995
-1.316790
-1.224927
-1.121249
-1.006709
-0.882365
-0.749368
-0.608951
-0.462414
-0.311108
-0.156444
0.173188
0.344436
0.512008
0.674336
0.829917
0.977304
1.115126
-0.977385
-1.115483
-1.242680
-1.357780
-1.459715
-1.547551
-1.620489
-1.677875
-1.719198
-1.744093
-1.752343
-1.743881
-1.718789
-1.677296
-1.619781
-1.546768
-1.458924
-1.357057
-1.242103
-1.115126
-0.977304
-0.829917
-0.674336
-0.512008
-0.344436
-0.173188
0.191596
0.381078
0.566532
0.746220
0.918469
1.081675
1.234313
-1.081882
-1.234802
-1.375670
-1.503159
-1.616081
-1.713397
-1.794216
-1.857808
-1.903603
-1.931193
-1.940336
-1.930956
-1.903143
-1.857155
-1.793414
-1.712503
-1.615168
-1.502305
-1.374959
-1.234313
-1.081675
-0.918469
-0.746220
-0.566532
-0.381078
-0.191596
0.211847
0.421386
0.626511
0.825294
1.015879
1.196483
1.365417
-1.196793
-1.366014
-1.521918
-1.663033
-1.788040
-1.895783
-1.985272
-2.055693
-2.106410
-2.136967
-2.147095
-2.136709
-2.105909
-2.054981
-1.984394
-1.894800
-1.787027
-1.662072
-1.521098
-1.365417
-1.196483
-1.015879
-0.825294
-0.626511
-0.421386
-0.211847
0.234135
0.465749
0.692522
0.912320
1.123083
1.322836
1.509701
-1.323230
-1.510387
-1.682836
-1.838946
-1.977253
-2.096472
-2.195503
-2.273440
-2.329575
-2.363401
-2.374617
-2.363126
-2.329041
-2.272679
-2.194562
-2.095415
-1.976157
-1.837898
-1.681926
-1.509701
-1.322836
-1.123083
-0.912320
-0.692522
-0.465749
-0.234135
0.258675
0.514593
0.765202
1.008137
1.241116
1.461949
1.668557
-1.462412
-1.669315
-1.859979
-2.032596
-2.185545
-2.317399
-2.426936
-2.513151
-2.575253
-2.612680
-2.625094
-2.612391
-2.574691
-2.512349
-2.425945
-2.316283
-2.184383
-2.031477
-1.858996
-1.668557
-1.461949
-1.241116
-1.008137
-0.765202
-0.514593
-0.258675
0.285703
0.568390
0.845251
1.113668
1.371115
1.615165
1.843515
-1.371295
-1.615684
-1.844333
-2.055055
-2.245852
-2.414927
-2.560697
-2.681807
-2.777137
-2.845813
-2.887207
-2.900945
-2.886907
-2.845229
-2.776304
-2.680774
-2.559532
-2.413711
-2.244676
-2.054013
-1.843515
-1.615165
-1.371115
-1.113668
-0.845251
-0.568390
-0.285703
0.315480
0.627657
0.933440
1.229931
1.514334
1.783961
2.036263
-1.514555
-1.784526
-2.037128
-2.269948
-2.480773
-2.667613