VARIABLES="X","Y","Z",Cp
ZONE T="Element0"
Nodes=27981, Elements=10472, ZONETYPE=FETRIANGLE
DATAPACKING=BLOCK
VARLOCATION = ([4] = CELLCENTERED)
0.000000
0.257345
0.381357
0.185556
0.274562
0.031600
0.368280
0.367321
0.366096
0.364142
0.365177
0.362464
0.363384
0.361571
0.360842
0.325608
0.324805
0.323266
0.322123
0.309674
0.311855
0.311127
0.308913
0.321323
0.320507
0.317062
0.317954
0.315091
0.316145
0.319804
0.318689
0.312652
0.314359
0.313513
0.326656
0.327471
0.353839
0.353042
0.350897
0.350365
0.349461
0.352021
0.348509
0.328167
0.329109
0.332747
0.339789
0.337981
0.338733
0.337211
0.333569
0.334568
0.335253
0.336249
0.346750
0.345895
0.343568
0.344602
0.342164
0.347580
0.340724
0.341305
0.331970
0.331308
0.330112
0.354534
0.355358
0.359853
0.359024
0.356391
0.357327
0.358040
0.297751
0.293547
0.292306
0.296952
0.295876
0.294671
0.283521
0.282752
0.290859
0.289418
0.287001
0.288545
0.291726
0.285475
0.284469
0.286163
0.307543
0.306547
0.303913
0.305279
0.298557
0.300424
0.299310
0.301308
0.302777
0.302063
0.280616
0.281745
0.279365
0.278683
0.277663
0.276709
0.275907
0.271947
0.272856
0.274828
0.273948
0.260059
0.260999
0.262004
0.262726
0.255730
0.254975
0.253895
0.256378
0.259340
0.258467
0.263594
0.268254
0.264638
0.265531
0.266204
0.266942
0.270556
0.269553
0.215412
0.216571
0.218075
0.217244
0.232489
0.235821
0.233141
0.234752
0.233642
0.230353
0.228562
0.229618
0.231416
0.227616
0.226856
0.219273
0.220383
0.226098
0.221290
0.222445
0.224346
0.225031
0.223388
0.246127
0.247011
0.250335
0.249741
0.248987
0.247981
0.252421
0.251411
0.253095
0.243481
0.245333
0.244496
0.236666
0.237317
0.238245
0.239255
0.240699
0.240105
0.241773
0.242710
0.375628
0.376627
0.378217
0.377255
0.380040
0.379106
0.380737
0.373800
0.373107
0.369331
0.370428
0.371107
0.372073
0.374538
0.384219
0.383403
0.387408
0.385253
0.386242
0.382441
0.036729
0.035376
0.033492
0.034424
0.031061
0.030304
0.028302
0.029318
0.032829
0.031797
0.026711
0.025947
0.027602
0.042416
0.041512
0.040768
0.039844
0.038771
0.037767
0.021969
0.023016
0.024695
0.019599
0.020711
0.018855
0.017107
0.017702
0.047708
0.048539
0.052165
0.051000
0.049444
0.050288
0.044929
0.046942
0.045875
0.044103
0.043398
0.059112
0.046216
0.074683
0.010400
0.007628
0.000634
0.001665
0.004780
0.014360
0.020296
0.014456
0.023562
0.035399
0.008800
0.016172
0.000171
0.001243
0.002158
0.004071
0.006138
0.004350
0.003076
0.000805
0.000257
0.002025
0.015222
0.014525
0.013640
0.012775
0.007542
0.008256
0.009175
0.006367
0.011631
0.010010
0.010951
0.005300
0.101878
0.101103
0.089630
0.090180
0.088702
0.100045
0.099346
0.091392
0.092622
0.096549
0.097573
0.098590
0.095022
0.093775
0.095876
0.053032
0.053744
0.054507
0.055562
0.056925
0.058048
0.073820
0.073004
0.071589
0.087550
0.086537
0.083213
0.085487
0.084473
0.074659
0.076081
0.077225
0.080911
0.080004
0.078337
0.079152
0.081613
0.082611
0.065963
0.066970
0.067672
0.068518
0.069532
0.070187
0.059519
0.065224
0.062376
0.064169
0.063520
0.060651
0.173669
0.166546
0.167506
0.165652
0.159722
0.160530
0.161365
0.164953
0.164129
0.161959
0.163010
0.172750
0.171374
0.168364
0.170175
0.169156
0.158687
0.157975
0.155359
0.155988
0.157169
0.154592
0.153452
0.152494
0.149947
0.151715
0.150801
0.132408
0.133375
0.136005
0.135180
0.134276
0.136934
0.147554
0.146098
0.149012
0.148347
0.138729
0.139471
0.140425
0.137808
0.144980
0.143792
0.141669
0.142771
0.191842
0.188349
0.190532
0.189256
0.187533
0.180667
0.183504
0.182201
0.181505
0.184679
0.186596
0.178683
0.179699
0.176990
0.176271
0.177841
0.175136
0.174421
0.103001
0.104501
0.105533
0.108061
0.106244
0.107025
0.124668
0.125400
0.123831
0.108722
0.112764
0.113913
0.111082
0.109640
0.115476
0.122031
0.122849
0.119854
0.121055
0.116470
0.118641
0.117499
0.126278
0.127125
0.128468
0.131459
0.130650
0.129578
0.214536
0.211918
0.209265
0.210409
0.211092
0.213801
0.213045
0.207729
0.208418
0.199175
0.199946
0.207045
0.205030
0.205954
0.201336
0.202489
0.200646
0.203435
0.204133
0.197781
0.192973
0.193810
0.194468
0.195709
0.196757
0.241646
0.257912
0.276727
0.305787
0.295486
0.322494
0.154112
0.136465
0.213414
0.190082
0.169834
0.087376
0.104515
0.119756
0.191078
0.263100
0.222379
0.207296
0.248521
0.233821
0.115258
0.086348
0.067241
0.100344
0.045318
0.155082
0.170904
0.135607
0.327492
0.304877
0.339366
0.359667
0.385981
0.401175
0.368345
0.418236
0.516647
0.534132
0.500438
0.480807
0.456055
0.435728
0.327071
0.317326
0.254015
0.256747
0.270549
0.221625
0.379398
0.236279
0.038027
0.038130
0.040437
0.114399
0.003701
-0.015843
0.243517
0.283218
0.101731
0.008589
0.073571
0.072362
0.091216
0.069666
0.101458
0.079678
0.178363
0.163987
0.162972
0.165431
0.179660
0.140362
0.185317
0.168439
0.161571
0.111184
0.114246
0.116675
0.172257
0.206364
0.343548
0.267912
0.195530
0.190795
0.324595
-0.932376
-0.951541
0.157542
-0.638025
-0.433596
-0.351706
-0.163994
0.122657
0.244302
0.041768
-0.155217
-0.272138
0.070418
0.003775
-0.586211
-0.447681
-0.150509
0.116443
0.089869
-0.822354
-0.897005
0.159506
-0.011027
0.008617
0.220743
0.124445
0.059261
-0.065171
-0.090001
-0.045197
0.021172
-0.015541
-0.024366
0.497718
0.302400
0.291601
0.205283
0.123763
-0.189567
-0.116384
-0.099997
-0.066990
-0.070222
-0.025233
0.022222
-0.011236
0.034005
-0.049825
0.275169
0.362998
0.024969
0.048484
0.062821
0.045005
0.539359
0.636247
0.523337
0.441053
-0.053825
-0.090827
-0.181420
-0.106953
-0.154625
-0.181720
-0.252201
-0.455193
-0.277128
-0.269218
-0.139828
-0.128266
-0.100403
-0.188563
0.328840
0.356755
-0.242012
0.076102
0.616415
0.379448
0.367778
0.369195
0.360315
0.372975
0.386093
0.377331
0.395414
0.410553
0.406679
0.395988
0.325561
0.348755
0.338099
0.339560
0.351899
0.351707
0.356825
0.370541
0.360552
0.368294
0.855623
0.339149
0.343656
0.331882
0.329913
0.329749
0.321679
0.319740
0.310911
0.309980
0.299306
0.302609
0.300518
0.310053
0.311873
0.263315
0.281606
0.271669
0.271862
0.293040
0.280541
0.292351
0.290516
0.274509
0.282007
0.282581
0.240128
0.244631
0.252888
0.266006
0.255137
0.263582
0.243423
0.247224
0.380187
0.388541
0.397651
0.396586
0.387268
0.405958
0.305747
-0.773796
0.317812
-0.332893
0.023762
-0.142972
0.141470
-0.127091
-0.148061
0.057370
0.023827
-0.019109
0.053699
-0.164377
0.163878
-0.301771
0.043343
0.038028
0.014946
0.002518
0.067384
0.067254
0.132305
0.095013
0.060940
0.112118
0.185288
0.144875
-0.127434
-0.206226
-0.054169
-0.038827
-0.047779
-0.032821
-0.032474
-0.057940
-0.078291
-0.094546
-0.053937
-0.034361
0.045262
0.007651
0.005667
-0.003463
0.012757
0.025175
-0.029197
-0.015243
-0.000362
0.010069
-0.010023
-0.003700
-0.005890
0.004701
0.004724
0.058978
0.049247
0.026288
-0.018205
0.004100
-0.003599
0.412259
0.313429
0.115963
0.105678
0.100482
0.087077
0.009557
0.038521
0.055490
0.076294
0.068537
0.081711
0.110010
0.109471
0.088230
0.091607
0.076939
0.080487
0.233294
0.206013
0.205476
0.188891
0.186114
0.213600
0.215361
0.182819
0.190430
0.185807
0.198476
0.200309
0.205605
0.201628
0.174784
0.176259
0.159806
0.133554
0.125321
0.127731
0.139475
0.144477
0.128360
0.155698
0.161435
0.168196
0.156947
0.158431
0.131230
0.233571
0.233190
0.231461
0.103217
0.064430
0.211329
0.215704
0.160563
0.167371
0.123019
0.408283
0.362518
0.247941
0.258320
0.190431
0.231101
0.342362
0.268746
0.286079
0.325384
0.287941
0.317129
0.351896
0.517809
0.393349
0.396907
0.436960
0.438999
0.477517
0.163308
0.209384
0.239923
0.263098
0.277466
0.016955
0.031121
0.496910
0.571147
0.447687
0.389950
0.476546
-0.600764
-0.010085
-0.450004
-0.287433
-0.070714
-0.191118
-0.095259
-0.096654
-0.128751
-0.129778
-0.291089
-0.448230
-0.355043
-0.027730
-0.027084
-0.064021
-0.095732
-0.045613
-0.050462
-0.057451
-0.071701
-0.185749
-0.578168
-0.287798
-0.538802
-0.082940
0.641326
0.387397
0.377135
0.379652
0.382365
0.387697
0.382517
0.380029
0.382361
0.374521
0.374488
0.376732
0.364763
0.365970
0.366477
0.365511
0.366119
0.367695
0.367066
0.368649
0.368273
0.367257
0.386765
0.377713
0.379637
0.372950
0.372655
0.372997
0.368879
0.370019
0.370747
0.369520
0.369934
0.371581
0.371221
0.370275
0.377547
0.380944
0.372093
0.374418
0.374596
0.364485
0.363558
0.363357
0.366530
0.366900
0.365418
0.365072
0.357635
0.357835
0.361457
0.358406
0.359704
0.367119
0.366509
0.364311
0.363469
0.363790
0.366176
0.366552
0.364838
0.363829
0.365226
0.366009
0.364629
0.365333
0.363383
0.362557
0.362432
0.367773
0.364600
0.365857
0.361610
0.360993
0.359966
0.362448
0.358349
0.360763
0.359290
0.359515
0.360416
0.362029
0.361931
0.357386
0.356883
0.348450
0.359197
0.349189
0.359188
0.352756
0.355152
0.357137
0.354679
0.353796
0.361104
0.352992
0.352371
0.356298
0.347964
0.352054
0.347648
0.350887
0.351333
0.354141
0.353595
0.357229
0.356691
0.366847
0.361736
0.361176
0.373496
0.393749
0.370228
0.363445
0.360002
0.362493
0.364968
0.368330
0.367679
0.365577
0.359144
0.361751
0.361321
0.356411
0.356764
0.355558
0.356828
0.358242
0.401384
0.393183
0.379274
0.370119
0.372956
0.377003
0.377319
0.368223
0.406904
0.411781
0.405911
0.425984
0.437884
0.465488
0.455491
0.436102
0.422677
0.447386
0.429446
0.434117
0.449275
0.449325
0.468336
0.453720
0.468410
0.433645
0.429649
0.386350
0.387124
0.395420
0.389462
0.397706
0.401918
0.403509
0.393798
0.448099
0.421295
0.403732
0.419865
0.400927
0.402572
0.421502
0.435140
0.435211
0.416106
0.416744
0.468462
0.456120
0.335716
0.330728
0.328379
0.327748
0.331181
0.327653
0.326692
0.326367
0.326606
0.325000
0.325754
0.325416
0.325132
0.326276
0.324589
0.327009
0.325537
0.327807
0.326191
0.321305
0.329345
0.339573
0.329690
0.325231
0.332368
0.329428
0.332818
0.329888
0.327116
0.326653
0.324542
0.323330
0.320496
0.322395
0.321456
0.324017
0.325332
0.328390
0.325782
0.309628
0.306179
0.313939
0.307938
0.309464
0.312265
0.315807
0.313219
0.317107
0.323789
0.322310
0.322222
0.321062
0.325506
0.324174
0.316440
0.320435
0.319808
0.319456
0.319667
0.319383
0.318394
0.320510
0.321708
0.317891
0.317271
0.318501
0.318367
0.324012
0.327165
0.324551
0.326138
0.325204
0.323227
0.320813
0.321991
0.324180
0.323920
0.321447
0.323644
0.323092
0.322484
0.311184
0.311929
0.313278
0.314210
0.311784
0.310521
0.310343
0.312611
0.312013
0.310721
0.311782
0.311484
0.307223
0.310229
0.307893
0.309119
0.307568
0.308805
0.308325
0.309366
0.308983
0.311477
0.312288
0.324387
0.322282
0.323050
0.321898
0.321160
0.320556
0.321615
0.320816
0.322677
0.324013
0.322777
0.323449
0.317764
0.315753
0.314559
0.317096
0.318786
0.318198
0.316759
0.315657
0.314479
0.316177
0.318437
0.320373
0.319803
0.317310
0.318507
0.319249
0.319655
0.319039
0.320105
0.317898
0.321432
0.317503
0.313462
0.314922
0.318278
0.313720
0.313325
0.314559
0.317175
0.316256
0.315792
0.316007
0.315302
0.314590
0.313664
0.312768
0.316077
0.317640
0.319524
0.313903
0.313504
0.314019
0.314822
0.315219
0.312857
0.346438
0.325729
0.329529
0.320375
0.330634
0.382702
0.386100
0.362340
0.362256
0.378521
0.344938
0.334243
0.339222
0.339271
0.334392
0.337094
0.332262
0.336521
0.332129
0.334658
0.335502
0.326771
0.332620
0.333422
0.331880
0.328377
0.327787
0.328173
0.327374
0.327561
0.328784
0.328492
0.331457
0.329351
0.330638
0.328907
0.330309
0.332603
0.330044
0.330610
0.329923
0.353813
0.352826
0.352211
0.351542
0.352515
0.354038
0.354661
0.353375
0.359063
0.358211
0.354641
0.356610
0.353567
0.356196
0.354600
0.352908
0.328543
0.327159
0.338483
0.349010
0.331996
0.330326
0.332777
0.333479
0.329255
0.345481
0.341970
0.349812
0.334150
0.339698
0.342962
0.336604
0.338289
0.335498
0.342674
0.339164
0.349522
0.334892
0.367542
0.369392
0.356679
0.357160
0.362918
0.350429
0.351866
0.351153
0.354421
0.354221
0.353169
0.352007
0.349038
0.352885
0.352656
0.353831
0.350514
0.350492
0.349389
0.349976
0.348568
0.348880
0.351810
0.350090
0.351756
0.351352
0.352737
0.351616
0.351399
0.347109
0.350053
0.347468
0.346701
0.348055
0.347137
0.348615
0.347916
0.341524
0.341621
0.339461
0.345458
0.341195
0.335515
0.326995
0.327630
0.333702
0.329982
0.331127
0.332347
0.343918
0.335892
0.336071
0.337096
0.342736
0.340981
0.338857
0.337611
0.338922
0.339823
0.338734
0.339205
0.340264
0.339750
0.332946
0.338863
0.336442
0.335901
0.338021
0.336571
0.337528
0.340432
0.335001
0.334759
0.333842
0.335383
0.336935
0.336887
0.335425
0.334056
0.334571
0.335785
0.336589
0.337670
0.338073
0.338700
0.338435
0.339301
0.337193
0.340629
0.348028
0.352796
0.351101
0.346625
0.350756
0.350387
0.349372
0.349453
0.348752
0.348669
0.351543
0.343238
0.344387
0.345527
0.345096
0.345988
0.344433
0.344504
0.344343
0.346381
0.347460
0.343746
0.343246
0.342737
0.341138
0.342413
0.342161
0.340188
0.341535
0.341910
0.346224
0.347868
0.346767
0.351651
0.350809
0.347086
0.346252
0.347853
0.345417
0.344474
0.348497
0.345063
0.343682
0.350029
0.345935
0.341558
0.342942
0.341235
0.342762
0.345483
0.344651
0.340825
0.341739
0.342286
0.344626
0.344114
0.343422
0.342888
0.344793
0.346461
0.348249
0.354859
0.343662
0.344411
0.340703
0.337633
0.333813
0.333312
0.332722
0.331086
0.332066
0.328412
0.329864
0.329808
0.328712
0.332938
0.332380
0.330967
0.332402
0.333187
0.331524
0.330350
0.331506
0.331894
0.331682
0.334082
0.340929
0.335474
0.337498
0.338842
0.336999
0.333742
0.344037
0.348321
0.346256
0.342587
0.344147
0.341607
0.344168
0.339275
0.334514
0.357571
0.355517
0.355951
0.356597
0.356125
0.354821
0.355333
0.355568
0.355654
0.354663
0.356303
0.360924
0.361850
0.357304
0.356872
0.358122
0.361836
0.361841
0.358954
0.360400
0.359150
0.359658
0.360389
0.358290
0.360143
0.362599
0.358408
0.360818
0.357922
0.362788
0.363332
0.364402
0.368570
0.372552
0.366834
0.369040
0.368974
0.367417
0.368630
0.365274
0.361488
0.361733
0.363328
0.365840
0.363629
0.359987
0.364492
0.365185
0.370866
0.367810
0.372647
0.362950
0.376148
0.366771
0.366360
0.380268
0.377289
0.383272
0.374674
0.381989
0.363805
0.387212
0.395020
0.375953
0.369639
0.413151
0.455633
0.460442
0.443697
0.458837
0.425564
0.392870
0.430783
0.414092
0.439397
0.422388
0.430556
0.414305
0.427105
0.412874
0.438885
0.439745
0.397932
0.430187
0.410257
0.418779
0.468300
0.430140
0.449172
0.449236
0.449699
0.459659
0.287026
0.285621
0.320281
0.324342
0.313247
0.320507
0.297308
0.299037
0.298879
0.304532
0.301482
0.293003
0.293919
0.295096
0.293924
0.292758
0.299125
0.298229
0.296981
0.297893
0.296539
0.296832
0.297809
0.297269
0.297755
0.297995
0.297973
0.294364
0.293207
0.296196
0.296947
0.295220
0.295380
0.296036
0.295835
0.299058
0.299171
0.296763
0.295635
0.294718
0.288695
0.288381
0.287605
0.292185
0.291726
0.292057
0.292556
0.290760
0.290402
0.290111
0.291818
0.291270
0.289552
0.289914
0.288660
0.289870
0.283763
0.285182
0.283783
0.283239
0.282443
0.284249
0.282172
0.283593
0.282890
0.300587
0.299137
0.297284
0.286025
0.287332
0.286406
0.286948
0.289291
0.290241
0.289274
0.288160
0.288294
0.294316
0.295061
0.293361
0.295969
0.294581
0.293575
0.292558
0.292782
0.294768
0.294299
0.293595
0.296017
0.290406
0.292434
0.293030
0.291606
0.291897
0.292104
0.290979
0.296440
0.299378
0.289505
0.290237
0.285294
0.289241
0.289599
0.286181
0.284721
0.285683
0.285331
0.287184
0.286666
0.287774
0.288315
0.287740
0.291130
0.294140
0.292178
0.303555
0.301299
0.301090
0.298244
0.281300
0.280207
0.281128
0.280911
0.281997
0.284982
0.286491
0.283053
0.286399
0.290001
0.290534
0.285714
0.281698
0.283966
0.312376
0.313286
0.303809
0.299740
0.287489
0.288046
0.294506
0.296855
0.292365
0.296049
0.289479
0.290544
0.293252
0.294275
0.291477
0.297288
0.295711
0.306353
0.302996
0.301884
0.298096
0.302987
0.298694
0.300949
0.306005
0.305212
0.316769
0.334328
0.339531
0.328204
0.325306
0.322902
0.322409
0.318187
0.320808
0.320334
0.333003
0.326879
0.302624
0.303833
0.303021
0.304208
0.303230
0.302831
0.303893
0.304393
0.305563
0.312898
0.311540
0.312036
0.311387
0.310800
0.310027
0.309156
0.308740
0.308034
0.309771
0.307570
0.308011
0.307480
0.309043
0.308223
0.309684
0.307025
0.306298
0.306594
0.305876
0.305307
0.305665
0.304934
0.306271
0.306748
0.304362
0.305631
0.308689
0.310709
0.307961
0.311025
0.320280
0.317905
0.312360
0.316332
0.315931
0.310866
0.314764
0.313685
0.317284
0.312837
0.309887
0.316272
0.313197
0.315566
0.311665
0.323678
0.303692
0.307815
0.299556
0.300121
0.304801
0.302485
0.301440
0.312724
0.309853
0.303420
0.305624
0.306614
0.302375
0.302253
0.299364
0.300232
0.299178
0.301356
0.299739
0.300477
0.298496
0.300913
0.303870
0.304956
0.303532
0.302364
0.301723
0.300119
0.299526
0.300595
0.300498
0.301555
0.301238
0.298914
0.302188
0.305249
0.304997
0.303005
0.304067
0.310614
0.305844
0.307746
0.307445
0.302133
0.304110
0.303617
0.305336
0.301167
0.306582
0.306183
0.306627
0.319804
0.319726
0.312827
0.270323
0.334754
0.325231
0.320989
0.300102
0.288927
0.284179
0.298691
0.304265
0.300815
0.281729
0.292669
0.293345
0.286155
0.315388
0.332304
0.357982
0.345593
0.347561
0.284476
0.284947
0.283582
0.283206
0.282878
0.282069
0.282072
0.280725
0.323786
0.281627
0.283656
0.275896
0.278797
0.275055
0.276859
0.278116
0.280002
0.278879
0.278037
0.279763
0.281773
0.279420
0.286193
0.310001
0.311499
0.323888
0.323307
0.294004
0.289638
0.294603
0.291470
0.290938
0.296501
0.300246
0.300220
0.297048
0.280132
0.278754
0.278643
0.279653
0.279598
0.280484
0.281073
0.278753
0.279015
0.279925
0.280378
0.281657
0.279437
0.273012
0.272472
0.273702
0.275531
0.275009
0.274084
0.271705
0.271593
0.272819
0.273786
0.272670
0.274977
0.273039
0.272000
0.277607
0.275886
0.278514
0.277540
0.279088
0.277304
0.277821
0.276787
0.275383
0.275946
0.274341
0.274623
0.275988
0.277475
0.276864
0.274716
0.274373
0.273068
0.273170
0.271860
0.273667
0.272538
0.277627
0.277932
0.275324
0.275517
0.276990
0.276429
0.276075
0.276492
0.273299
0.272646
0.274316
0.274348
0.292016
0.286547
0.291668
0.288808
0.284661
0.281619
0.285884
0.284890
0.282895
0.282150
0.285124
0.279012
0.279926
0.282121
0.285457
0.283562
0.283137
0.284847
0.287614
0.280792
0.286319
0.300089
0.291401
0.299641
0.290224
0.294493
0.305391
0.304931
0.314470
0.317192
0.372822
0.373723
0.353736
0.373952
0.365885
0.360554
0.316969
0.334821
0.353801
0.337194
0.372879
0.353906
0.358176
0.372968
0.359635
0.348904
0.324304
0.327703
0.342995
0.341429
0.243220
0.246369
0.243197
0.248430
0.243706
0.244283
0.244904
0.247502
0.248025
0.254919
0.252412
0.259361
0.243413
0.243708
0.251532
0.255650
0.249750
0.250392
0.248830
0.248683
0.251185
0.259298
0.258543
0.258762
0.260506
0.260142
0.260946
0.262025
0.262156
0.261090
0.261653
0.262279
0.260569
0.262971
0.263298
0.262925
0.265515
0.267715
0.268297
0.268780
0.267150
0.266755
0.264614
0.265903
0.264273
0.265405
0.265254
0.263717
0.267106
0.266271
0.263259
0.259189
0.260139
0.249504
0.255246
0.256738
0.255798
0.258673
0.254658
0.260331
0.253613
0.257545
0.251448
0.250500
0.251379
0.251566
0.251046
0.253536
0.252358
0.251572
0.252795
0.252527
0.253208
0.255420
0.254266
0.255634
0.254041
0.254771
0.253577
0.258201
0.256182
0.257733
0.256701
0.257525
0.261063
0.257049
0.258413
0.260645
0.259193
0.261201
0.258488
0.259780
0.259625
0.260672
0.260178
0.256761
0.257915
0.258693
0.262292
0.259977
0.260011
0.262526
0.252557
0.284656
0.272161
0.273126
0.254708
0.262552
0.263517
0.263963
0.253653
0.247517
0.245248
0.253233
0.249521
0.250546
0.249026
0.271893
0.262065
0.263619
0.263311
0.262838
0.269773
0.271430
0.270277
0.271007
0.271574
0.269815
0.271095
0.268969
0.268584
0.269389
0.270651
0.270856
0.271628
0.270299
0.265973
0.264813
0.263544
0.264296
0.265495
0.265021
0.274573
0.272093
0.270320
0.267896
0.266337
0.272740
0.266865
0.268993
0.268523
0.268033
0.269061
0.267352
0.266803
0.266369
0.266836
0.267158
0.265619
0.265591
0.268209
0.268158
0.269169
0.269807
0.268938
0.268613
0.267577
0.282217
0.281908
0.271539
0.261864
0.262349
0.267497
0.270388
0.270265
0.264871
0.267823
0.267019
0.277729
0.273897
0.272860
0.274746
0.271804
0.274738
0.272223
0.269031
0.269762
0.266911
0.265287
0.263524
0.265809
0.262413
0.278727
0.287378
0.276389
0.268356
0.272257
0.273610
0.269421
0.272858
0.274566
0.279011
0.271912
0.270268
0.274445
0.273227
0.276067
0.278727
0.271329
0.281073
0.276820
0.297032
0.296589
0.307651
0.294889
0.318468
0.306059
0.311638
0.320608
0.301316
0.295195
0.313423
0.301716
0.296927
0.316102
0.325056
0.327453
0.330200
0.344196
0.331321
0.344276
0.344144
0.325788
0.363235
0.389263
0.392903
0.430103
0.411890
0.391912
0.411918
0.408233
0.427078
0.450339
0.430307
0.377909
0.396269
0.411102
0.411049
0.390747
0.391962
0.391835
0.395573
0.420640
0.406331
0.371575
0.401637
0.386713
0.345189
0.382340
0.401438
0.363735
0.382370
0.363281
0.334419
0.333530
0.333440
0.377642
0.352974
0.353120
0.350755
0.387005
0.389114
0.369152
0.368750
0.350100
0.367463
0.382495
0.371016
0.382419
0.420540
0.401505
0.438672
0.420571
0.420610
0.401475
0.440760
0.401780
0.337855
0.335086
0.333778
0.351159
0.353717
0.357611
0.352619
0.373627
0.377297
0.343167
0.342456
0.378399
0.218127
0.216951
0.216200
0.215621
0.233098
0.243952
0.228264
0.223907
0.218696
0.216853
0.216470
0.215958
0.218256
0.217031
0.224774
0.222276
0.219241
0.220889
0.222679
0.234195
0.233963
0.233667
0.227921
0.225423
0.226844
0.230051
0.231265
0.228313
0.220090
0.220272
0.216572
0.219149
0.215605
0.217421
0.216665
0.218637
0.218367
0.217552
0.223874
0.220191
0.222379
0.221354
0.223472
0.221490
0.222119
0.226341
0.226181
0.223671
0.224678
0.230350
0.243593
0.245701
0.235037
0.239017
0.238703
0.272566
0.271092
0.279024
0.236237
0.241436
0.243419
0.242142
0.219715
0.217954
0.220234
0.228769
0.233858
0.222785
0.222178
0.225241
0.236504
0.233505
0.232122
0.226135
0.229463
0.224048
0.227762
0.221336
0.224502
0.232808
0.228397
0.238160
0.235244
0.238413
0.233015
0.236072
0.238610
0.240605
0.234084
0.241398
0.239455
0.239481
0.236609
0.237396
0.237071
0.238141
0.237639
0.238780
0.240158
0.233234
0.234824
0.238868
0.235859
0.235683
0.236207
0.233461
0.234714
0.234013
0.237356
0.235564
0.234508
0.230407
0.233363
0.232055
0.230704
0.231741
0.231063
0.232298
0.231809
0.234102
0.233482
0.234426
0.229179
0.229701
0.231038
0.233506
0.231225
0.232605
0.232924
0.232232
0.230303
0.232252
0.230182
0.231404
0.230474
0.231177
0.232725
0.228855
0.227750
0.230909
0.232558
0.228738
0.226331
0.226212
0.228540
0.227304
0.227305
0.229842
0.225972
0.227372
0.229948
0.220900
0.217818
0.220010
0.222423
0.220910
0.221543
0.218384
0.219502
0.219364
0.219069
0.220866
0.227230
0.230878
0.228538
0.224272
0.225034
0.223050
0.223539
0.224498
0.225108
0.228036
0.228607
0.227391
0.227444
0.227912
0.226524
0.226825
0.223692
0.222169
0.222041
0.225061
0.225985
0.225778
0.224607
0.225029
0.226525
0.222719
0.222693
0.224375
0.223685
0.223508
0.224358
0.233798
0.237333
0.230562
0.234446
0.229293
0.231912
0.231331
0.229295
0.265354
0.262260
0.262930
0.257497
0.267348
0.265944
0.264050
0.268820
0.264624
0.260353
0.263380
0.257451
0.247870
0.245515
0.245486
0.257292
0.256066
0.255103
0.255980
0.253892
0.252210
0.253093
0.251302
0.251867
0.255146
0.250758
0.251387
0.250535
0.246350
0.246838
0.248306
0.247639
0.247887
0.246634
0.247821
0.246553
0.250692
0.249320
0.251675
0.249398
0.250193
0.249990
0.249213
0.249784
0.249003
0.248037
0.254037
0.256197
0.255453
0.254100
0.255159
0.253263
0.252459
0.252728
0.254210
0.245390
0.244315
0.244100
0.253559
0.252906
0.249813
0.246124
0.248969
0.248258
0.251058
0.265786
0.256086
0.255247
0.261867
0.259702
0.258102
0.258410
0.253448
0.264021
0.262482
0.259878
0.257896
0.259218
0.257288
0.244245
0.244058
0.245267
0.246558
0.246166
0.245454
0.245484
0.243537
0.244552
0.249360
0.247106
0.246698
0.247538
0.248530
0.246064
0.267702
0.236811
0.238893
0.240700
0.247914
0.244108
0.245521
0.241214
0.243347
0.252462
0.252653
0.248021
0.248601
0.239313
0.238427
0.237442
0.238189
0.239326
0.239465
0.240104
0.234797
0.235772
0.236809
0.237892
0.236074
0.238083
0.236227
0.237590
0.235796
0.234965
0.242417
0.240862
0.239647
0.242206
0.242568
0.240325
0.241919
0.243861
0.241157
0.238770
0.241854
0.240000
0.241252
0.245895
0.246849
0.243972
0.243105
0.245551
0.249755
0.243185
0.240513
0.241888
0.240122
0.241288
0.242767
0.241941
0.242912
0.243144
0.240881
0.277107
0.281714
0.275763
0.277719
0.279317
0.260139
0.256418
0.258194
0.311472
0.293316
0.271276
0.285896
0.296544
0.282572
0.296436
0.315451
0.329350
0.315449
0.336198
0.334656
0.351950
0.353682
0.283647
0.252880
0.267559
0.315584
0.315699
0.296656
0.302590
0.371350
0.475256
0.353419
0.357421
0.353237
0.339358
0.337110
0.334759
0.350250
0.350577
0.317498
0.374330
0.375681
0.369641
0.388795
0.401711
0.366257
0.382508
0.491750
0.498725
0.498203
0.520384
0.420687
0.423533
0.420830
0.420346
0.401768
0.401437
0.479242
0.431693
0.458896
0.460784
0.476459
0.478299
0.461010
0.439039
0.440962
0.479953
0.439625
0.455346
0.460314
0.458942
0.441224
0.482467
0.533519
0.497082
0.514748
0.554075
0.535526
0.515938
0.536493
0.515220
0.532058
0.457528
0.431241
0.447829
0.412318
0.430487
0.422095
0.402179
0.419962
0.421549
0.419938
0.403749
0.494587
0.516323
0.502446
0.496794
0.496113
0.515255
0.444051
0.476067
0.458689
0.464861
0.436973
0.441502
0.456437
0.476654
0.479134
0.474567
0.461434
0.459625
0.460840
0.439781
0.478339
0.478936
0.440474
0.438952
0.382520
0.419494
0.399475
0.344100
0.363172
0.382436
0.382305
0.363205
0.399535
0.496423
0.493385
0.496678
0.535610
0.535613
0.510570
0.518005
0.516423
0.531730
0.392493
0.429370
0.414788
0.392396
0.479501
0.457061
0.476251
0.389861
0.409469
0.460660
0.453886
0.473147
0.440520
0.419623
0.418030
0.420453
0.439949
0.434475
0.341610
0.323998
0.342534
0.344606
0.325414
0.384762
0.380033
0.405627
0.401869
0.401424
0.380817
0.360030
0.363030
0.363093
0.554025
0.555364
0.498980
0.514664
0.534054
0.550532
0.553917
0.535005
0.534991
0.535356
0.515935
0.554492
0.534960
0.557969
0.554007
0.514473
0.497762
0.493839
0.516646
0.496343
0.534813
0.537661
0.516340
0.535163
0.512204
0.481656
0.474260
0.374878
0.375654
0.375268
0.373906
0.374363
0.374113
0.375595
0.381679
0.383292
0.379607
0.380776
0.380708
0.381323
0.380020
0.382594
0.381943
0.380247
0.380870
0.381397
0.382000
0.375682
0.377554
0.376360
0.377002
0.378268
0.376812
0.377405
0.378319
0.379365
0.377941
0.379887
0.380767
0.379347
0.378462
0.376685
0.377486
0.379225
0.378106
0.380041
0.381691
0.381043
0.382311
0.381874
0.386870
0.382397
0.385039
0.384296
0.381154
0.381328
0.377804
0.369067
0.367944
0.367844
0.367765
0.369305
0.371648
0.374579
0.370537
0.368285
0.373153
0.373038
0.372286
0.372406
0.371240
0.371690
0.372040
0.370416
0.373902
0.373270
0.372510
0.378755
0.378699
0.378242
0.377218
0.385193
0.374831
0.373461
0.374608
0.376648
0.374403
0.377108
0.375633
0.375700
0.374960
0.376134
0.377770
0.381535
0.383207
0.381787
0.379888
0.382172
0.379155
0.377089
0.374887
0.377950
0.368563
0.369708
0.371979
0.372183
0.369714
0.370871
0.371991
0.371216
0.369383
0.370589
0.370680
0.372429
0.375502
0.370900
0.373328
0.374330
0.379823
0.380286
0.376553
0.373014
0.376641
0.383842
0.387728
0.384777
0.385531
0.387295
0.396256
0.391600
0.382689
0.390352
0.373290
0.380144
0.411908
0.386053
0.386086
0.384008
0.384926
0.384422
0.383127
0.384902
0.384760
0.382781
0.384011
0.383367
0.385487
0.384889
0.384189
0.394963
0.388354
0.386635
0.390082
0.389156
0.393243
0.386235
0.391752
0.397096
0.400179
0.389174
0.391844
0.393350
0.393641
0.387032
0.389741
0.390938
0.386738
0.410566
0.387526
0.388459
0.382797
0.382842
0.383531
0.386293
0.385760
0.387131
0.384033
0.385189
0.384587
0.387954
0.387455
0.386909
0.388080
0.388654
0.384851
0.386102
0.385402
0.386388
0.386643
0.387331
0.386271
0.383741
0.385361
0.384351
0.387913
0.388626
-0.043198
0.163486
0.076303
-0.042456
-0.004077
-0.018711
0.328086
0.041297
0.041341
0.037906
0.036272
0.035035
0.034592
0.036670
0.036237
0.035616
0.037840
0.040220
0.038123
0.035323
0.034187
0.033764
0.035637
0.035401
0.033875
0.034754
0.036077
0.036763
0.036330
0.037437
0.037475
0.036438
0.039835
0.039083
0.040192
0.038586
0.034145
0.033965
0.037605
0.034803
0.032950
0.031952
0.033613
0.020147
0.020941
0.022143
0.021882
0.024089
0.025655
0.025089
0.023339
0.023166
0.022476
0.024154
0.023497
0.024959
0.031466
0.027026
0.028568
0.027583
0.031945
0.030340
0.030892
0.029704
0.028482
0.027610
0.029386
0.031870
0.032948
0.032849
0.031509
0.032100
0.032909
0.031018
0.028105
0.026170
0.027487
0.026250
0.029171
0.029079
0.027047
0.028790
0.027455
0.028483
0.027760
0.029887
0.030015
0.030565
0.031050
0.031253
0.033559
0.037038
0.033269
0.035709
0.035200
0.034582
0.038327
0.037690
0.035788
0.038852
0.040917
0.042132
0.043885
0.042443
0.042617
0.040904
0.041560
0.040766
0.039548
0.037425
0.037254
0.038389
0.039736
0.041039
0.038907
0.040124
0.039903
0.038853
0.039014
0.039871
0.043406
0.044698
0.000345
0.000129
-0.010719
0.037955
0.034547
0.022741
0.024666
0.027326
0.031017
0.025949
0.025013
0.027625
0.029194
0.020599
0.021484
0.024400
0.025189
0.024125
0.026513
0.024936
0.025905
0.028477
0.036607
0.033744
0.031234
0.032354
0.035862
0.030002
0.034264
0.032778
0.031523
0.023074
0.019609
0.019579
0.022823
0.023163
0.022214
0.020075
0.021317
0.022383
0.021636
0.020387
0.021366
0.028604
0.025569
0.026662
0.018325
0.016390
0.018483
0.027568
0.019497
0.023254
0.023932
0.021385
0.024492
0.022434
0.020159
0.020521
0.016102
0.017601
0.015925
0.016351
0.019100
0.018308
0.017995
0.017122
0.019730
0.065692
0.064751
0.061585
0.062811
0.060527
0.060412
0.058121
0.057683
0.054487
0.054044
0.056155
0.059581
0.059844
0.057152
0.053249
0.055612
0.064027
0.060940
0.053778
0.048223
0.050697
0.049448
0.049752
0.050005
0.048409
0.047649
0.048487
0.049504
0.050780
0.052103
0.051258
0.051268
0.053668
0.052270
0.051357
0.051972
0.052999
0.052263
0.048594
0.050095
0.047879
0.049041
0.048502
0.049434
0.050184
0.055430
0.053750
0.055048
0.057112
0.056168
0.055064
0.061017
0.047919
0.058293
0.043197
0.041293
0.041399
0.045784
0.046712
0.043561
0.043533
0.045005
0.046581
0.042581
0.052719
0.055121
0.051704
0.048847
0.048559
0.050365
0.050238
0.047212
0.041137
0.042484
0.042329
0.041728
0.043374
0.042831
0.044283
0.048851
0.044222
0.046376
0.047225
0.046914
0.045678
0.043338
0.044936
0.044382
0.047147
0.045470
0.046276
0.046312
0.047320
0.045030
0.047131
0.053282
0.050038
0.031813
0.045771
0.080028
0.067524
0.087783
0.050460
0.091548
0.148236
-0.046586