VARIABLES="X","Y","Z",Cp
ZONE T="Element0"
Nodes=27111, Elements=6442, ZONETYPE=FETRIANGLE
DATAPACKING=BLOCK
VARLOCATION = ([4] = CELLCENTERED)
10.478000
10.478000
10.478000
10.478000
-10.478000
-10.478000
-10.478000
-10.478000
1.141933
0.980972
0.972558
1.100432
1.109844
1.057491
1.062135
1.087255
1.035914
0.989384
1.002336
1.139836
1.138902
1.135274
1.134656
1.134340
1.096619
1.091462
1.105796
10.478000
10.478000
7.323216
10.478000
10.478000
7.327610
10.478000
10.478000
10.478000
10.478000
10.478000
10.478000
10.478000
10.478000
10.478000
10.478000
10.478000
7.479935
10.478000
10.478000
10.478000
7.475009
10.478000
10.478000
-8.995167
-10.478000
-10.478000
-10.478000
-7.409608
-10.478000
-10.478000
-10.478000
-10.478000
-10.478000
-10.478000
-10.478000
-10.478000
-10.478000
-10.478000
-10.478000
-10.478000
-10.478000
-10.478000
-10.478000
-10.478000
-7.187118
-7.722728
-4.787721
3.322014
-1.570624
1.223543
6.082316
0.981460
0.982067
0.979763
0.980359
0.983593
0.982689
0.983113
0.985066
0.984124
0.984547
0.979369
0.977731
0.978944
0.978376
0.977296
0.976358
0.976791
0.973179
0.973627
0.974215
0.972034
0.971433
0.975671
0.975326
0.974715
0.959694
0.960638
0.960258
0.962520
0.961562
0.962025
0.961195
0.963306
0.963831
0.964324
0.964878
0.965321
0.965784
0.968059
0.970992
0.970013
0.970555
0.968607
0.969558
0.969013
0.967460
0.967048
0.966364
0.958924
0.958416
0.957855
0.957433
0.956800
0.956303
0.939071
0.939526
0.940616
0.941179
0.940188
0.941958
0.941593
0.942745
0.944167
0.943373
0.943729
0.952583
0.951288
0.952098
0.951836
0.945829
0.944867
0.945470
0.950042
0.949516
0.949100
0.948526
0.950611
0.947119
0.946500
0.947525
0.948174
0.954238
0.953187
0.953753
0.955285
0.954837
0.955812
1.116040
1.115110
1.115503
1.117268
1.116689
1.117720
1.121394
1.120823
1.120374
1.122575
1.122027
1.118730
1.118176
1.120040
1.119333
1.123025
1.123908
1.123595
1.124987
1.124299
1.126817
1.126231
1.125666
1.111482
1.113521
1.112465
1.112001
1.112937
1.114618
1.114217
1.137430
1.136897
1.139763
1.139162
1.137965
1.138636
1.140435
1.140831
1.139835
1.137716
1.137875
1.137852
1.141290
1.139590
1.130196
1.128380
1.134440
1.133514
1.133944
1.136134
1.135696
1.135103
1.127561
1.128174
1.129293
1.128714
1.130039
1.132471
1.132086
1.131358
1.130439
1.130983
1.132939
1.070099
1.066399
1.072843
1.061427
1.069511
1.078676
1.073431
1.069718
1.077444
1.080095
1.072900
1.078048
1.084653
1.089403
1.084882
1.085022
1.111075
1.113612
1.109697
1.114884
1.112635
1.112814
1.119371
1.117066
1.118542
1.118236
1.115851
1.121785
1.123252
1.115588
1.128925
1.121670
1.101121
1.091999
1.096689
1.099180
1.094444
1.107583
1.101955
1.104776
1.105423
1.107444
1.110233
1.103623
1.108290
1.106930
1.107355
1.107910
1.109344
1.108718
1.106246
1.105799
1.104595
1.105247
1.094805
1.093443
1.094176
1.096803
1.099877
1.098874
1.099284
1.100970
1.097423
1.097787
1.098543
1.101431
1.102060
1.103100
1.102521
1.104027
1.103596
1.096333
1.095800
1.095180
1.110902
1.110312
1.057880
1.056270
1.056860
1.058524
1.059235
1.051769
1.052195
1.053856
1.054843
1.054407
1.053433
1.052934
1.056005
1.055602
1.059631
1.060061
1.060649
1.061138
1.062734
1.061689
1.068624
1.069152
1.070456
1.070012
1.069512
1.070905
1.063238
1.063941
1.065329
1.064980
1.064392
1.067972
1.067572
1.066555
1.066941
1.065974
1.042140
1.048527
1.047824
1.049160
1.042665
1.043414
1.043899
1.046518
1.046082
1.045498
1.044473
1.045100
1.047429
1.047063
1.049790
1.050731
1.050270
1.051237
1.093134
1.091535
1.090632
1.091181
1.092647
1.092075
1.089494
1.090092
1.089008
1.088428
1.087811
1.086817
1.086263
1.085584
1.085032
1.081684
1.082151
1.083956
1.082698
1.083341
1.084538
1.071674
1.072278
1.072759
1.073280
1.075681
1.074844
1.075283
1.074333
1.073730
1.080088
1.079690
1.076159
1.078014
1.078667
1.079066
1.076914
1.077450
1.081038
1.080674
1.026613
1.027155
1.027666
1.028050
1.041168
1.041689
1.039733
1.040778
1.040316
1.031436
1.032836
1.031954
1.032412
1.033402
1.034155
1.039154
1.038664
1.037128
1.038100
1.037693
1.034430
1.035405
1.034710
1.036405
1.029374
1.029818
1.030425
1.030858
1.028743
0.988446
0.988886
0.990001
0.990491
0.985771
0.987934
0.987196
0.986355
0.986769
1.022466
1.026055
1.023997
1.023553
1.023108
1.025548
1.024997
1.024651
1.022047
1.021396
1.020769
1.020238
1.018682
1.019745
1.019257
1.017651
0.994190
0.995597
0.995129
0.994794
0.993193
0.993744
0.996112
0.996909
0.997464
0.997862
1.005549
1.003737
1.002897
1.004880
1.004485
1.004207
1.001797
1.001275
1.006285
0.998468
1.000830
0.999185
1.000412
0.999696
0.998798
1.018227
1.010962
1.011600
1.012000
1.010308
1.016716
1.016298
1.015660
1.017177
1.013323
1.012895
1.012515
1.015189
1.013971
1.014687
1.009958
1.006841
1.007286
1.007956
1.008484
1.009100
0.991171
0.992525
0.991550
0.992088
-0.986724
-5.399420
-2.836067
5.393548
2.732305
-4.944553
3.233795
-2.132442
0.978567
5.856503
0.818044
-6.116768
-2.446317
5.859210
3.793174
10.478000
10.478000
8.533806
8.553342
-8.613026
-10.478000
-10.478000
-10.478000
-8.562117
0.979132
0.979624
0.980637
0.980759
0.981951
0.984096
0.983946
0.983064
0.982893
0.977082
0.975963
0.977207
0.977026
0.977634
0.976060
0.975753
0.972340
0.970842
0.970580
0.972410
0.973596
0.958288
0.973321
0.961599
0.960184
0.959156
0.957718
0.959139
0.957298
0.964695
0.962607
0.964051
0.971812
0.968763
0.966958
0.968245
0.969845
0.966551
0.967670
0.966155
0.966636
0.965320
0.954131
0.964350
0.957962
0.956531
0.955520
0.957851
0.956653
0.955095
0.955583
0.951895
0.952280
0.953523
0.952773
0.938797
0.940143
0.938608
0.937521
0.937846
0.941035
0.940034
0.941590
0.943398
0.942616
0.951693
0.949554
0.948480
0.950704
0.943412
0.944283
0.942580
0.942471
0.949199
0.948377
0.947367
0.945999
0.949680
0.948372
0.944020
0.944750
0.946548
0.953216
0.951744
0.951917
0.952907
0.953029
0.951853
0.935477
0.918372
1.113296
1.114055
1.115266
1.114470
1.111720
1.110525
1.115598
1.115731
1.105396
1.122801
1.120224
1.121628
1.120389
1.119236
1.119179
1.120781
1.116415
1.117935
1.116445
1.115184
1.122818
1.091974
1.125050
1.123677
1.109515
1.109654
1.112062
1.110782
1.111736
1.112282
1.136037
1.136003
1.134807
1.138304
1.138611
1.139693
1.136328
1.133252
1.133416
1.132467
1.132171
1.132532
1.133566
1.127377
1.127871
1.130824
1.129614
1.130114
1.128782
1.131241
1.074616
1.108741
1.079777
1.118694
1.116170
1.089760
1.100887
1.108063
1.092942
1.088780
1.108402
1.106906
1.104931
1.106059
1.106489
1.104923
1.102574
1.102072
1.101210
1.104143
1.103709
1.095311
1.095246
1.094726
1.098969
1.097255
1.099670
1.095458
1.100091
1.096530
1.101086
1.102616
1.098952
1.100225
1.101200
1.109072
1.109545
1.056018
1.057023
1.056997
1.055964
1.049867
1.050075
1.053546
1.052326
1.051266
1.054013
1.054259
1.053022
1.041046
1.022796
1.058358
1.060302
1.059457
1.061596
1.061151
1.069715
1.068949
1.067945
1.067868
1.068920
1.070247
1.060531
1.061067
1.061773
1.063028
1.066643
1.063845
1.065952
1.064515
1.063478
1.061856
1.039522
1.040507
1.047559
1.047695
1.042611
1.042368
1.044035
1.045286
1.043192
1.044515
1.046572
1.046240
1.048689
1.091867
1.089403
1.089200
1.087546
1.090467
1.090510
1.088139
1.086952
1.085633
1.086538
1.085771
1.069094
1.083491
1.084363
1.085578
1.086863
1.083896
1.077437
1.080925
1.079930
1.082148
1.071525
1.070166
1.068690
1.068056
1.071267
1.074916
1.072702
1.074352
1.072636
1.060547
1.078692
1.077513
1.076381
1.076215
1.073465
1.074762
1.075415
1.026056
1.024661
1.027290
1.025890
1.037824
1.038864
1.029676
1.031923
1.032232
1.030260
1.035506
1.034411
1.035553
1.036782
1.035171
1.033068
1.034298
1.013121
1.020976
1.031538
1.027709
1.025495
1.028202
0.986758
0.988779
0.967133
0.984041
0.982571
0.986425
0.985176
1.024790
1.022419
1.021396
1.020780
1.023503
1.023077
1.020316
1.018867
1.019886
1.018873
0.993666
0.992375
0.991879
0.991329
0.991453
0.994938
0.996454
1.000812
1.001751
0.999513
1.000782
1.001643
1.002128
1.003222
1.000832
1.003562
1.004468
1.000640
0.982799
0.999618
0.997552
0.997916
0.998409
0.986128
1.016636
1.010399
1.009325
1.009302
1.013257
1.013853
1.013968
1.015246
1.010593
1.012818
1.011183
1.016565
1.009220
1.007536
1.005526
1.007419
1.005910
1.001825
0.991392
0.990201
0.990190
0.987236
0.987650
0.989478
0.989023
0.979525
0.971526
0.957612
1.008106
1.017844
0.998904
1.001973
0.991806
1.035454
1.030614
1.040186
1.083191
1.078493
1.084693
1.088006
1.051608
1.107322
1.107198
1.128128
1.131136
1.136963
1.112102
1.118501
1.121558
0.940936
0.954344
0.949694
0.939430
0.954303
0.955191
0.968219
0.959132
0.974701
-5.021236
-3.177169
1.701897
0.543489
-1.751396
-2.278486
-0.685014
-4.077891
-4.484404
-2.799703
0.041793
-2.376746
-1.673339
1.098171
1.110725
1.306852
1.234075
-1.223505
-1.208403
-1.151983
0.051336
-0.488919
0.590162
3.653126
2.051089
2.045563
1.348374
0.802162
1.054591
-0.932376
-0.951541
0.157542
0.529219
-0.433596
1.218675
1.016297
0.924913
0.924899
1.184441
1.530607
0.991251
0.993737
0.974166
0.989129
1.202960
5.783834
5.219753
4.980339
5.520184
-0.112903
1.509939
2.960077
0.819770
-0.557333
1.470846
1.212233
0.937521
0.937292
0.946794
0.932032
0.947754
0.957829
0.956217
0.965193
0.954263
0.945481
0.946067
0.931525
0.936439
0.906728
0.929928
0.920122
0.916596
0.915975
0.917728
1.498902
1.356804
1.534702
1.865074
1.746985
1.058202
1.080427
1.085865
1.091837
1.089588
1.066492
1.081422
1.082226
1.071679
1.067021
1.068370
1.069958
1.074301
1.077565
1.090876
1.098063
1.099283
1.086839
1.117785
1.009176
1.012880
1.010122
1.032019
1.019344
1.041969
1.022898
1.033868
1.029636
1.022180
1.016309
1.021635
1.031647
1.032387
1.061795
1.052228
1.058495
1.061514
1.060467
1.040836
1.042094
1.041529
1.052272
1.048642
1.064743
1.000765
1.013124
1.006197
1.004504
0.964930
1.013243
0.993565
0.984235
0.994095
0.992106
0.981311
0.974516
0.974323
0.997747
0.984343
1.003949
0.983840
0.993113
0.974255
0.952767
0.956228
0.956201
0.951045
0.967942
0.963975
0.965593
0.964982
0.965157
-2.307216
-0.822354
-0.906634
-0.897005
0.328840
2.422257
0.122400
4.301596
3.356222
4.235092
2.977026
2.075710
3.009077
2.338455
4.148247
4.769639
2.974905
1.063652
-3.948733
-4.416871
0.857326
-0.367380
-2.892970
0.972619
0.972282
0.974835
0.972345
0.976051
0.971294
0.969891
0.974212
0.956925
0.949623
0.952239
0.962240
0.970010
0.965250
0.946066
0.956305
0.962097
0.949902
0.955010
0.953242
0.957023
0.947600
0.937755
0.945670
0.942866
0.944437
0.965823
0.964191
0.962318
0.967410
0.964187
0.957738
0.961777
0.956760
0.961500
0.966972
0.964860
0.968196
0.966447
0.962281
0.964165
0.943001
0.951106
0.959846
0.955510
0.951361
0.945910
0.950291
0.955171
0.953395
0.955958
0.951921
0.945556
0.953549
0.960157
0.960710
0.958616
0.955376
0.955564
0.968549
0.968590
0.961016
0.963760
0.963231
0.965716
0.966322
0.955193
0.946143
0.935289
0.947517
0.947104
0.948235
0.951219
0.942625
0.936658
0.942703
0.927254
0.935573
0.943018
0.936180
0.943411
0.927313
0.855623
0.935744
0.915264
0.926951
0.930151
0.928823
0.922887
0.939266
0.938710
0.945946
0.943603
0.940295
0.946224
0.942989
0.945070
0.950156
0.934915
0.934362
0.937108
0.942672
0.938937
0.933744
0.938800
0.936806
0.932117
0.936841
0.932588
0.933259
0.937325
0.934013
0.926608
0.934239
0.927313
0.936044
0.928130
0.917073
0.922668
0.917114
0.926761
0.931026
0.924104
0.927758
0.936909
0.926428
0.933548
0.933476
0.928365
1.552424
1.500047
1.216106
1.543122
1.102248
1.112457
1.111008
1.110845
1.104214
1.108493
1.105822
1.105492
1.106170
1.109442
1.104931
1.109499
1.106529
1.112711
1.086253
1.086730
1.098050
1.103030
1.117195
1.110897
1.111474
1.108108
1.096751
1.089123
1.099467
1.098539
1.102111
1.100052
1.108011
1.093164
1.077647
1.091183
1.090185
1.079034
1.096210
1.099118
1.096414
1.096237
1.099041
1.101352
1.102300
1.091577
1.079547
1.082948
1.137435
1.132967
1.129968
1.131746
1.128491
1.125154
1.129464
1.127099
1.125719
1.128153
1.125196
1.125742
1.125165
1.123069
1.128830
1.124979
1.127003
1.091471
1.069042
1.065310
1.081662
1.072367
1.115444
1.118827
1.114522
1.115666
1.103240
1.109087
1.104612
1.098396
1.097568
1.092591
1.094611
1.093321
1.088788
1.087468
1.120703
1.119268
1.115433
1.112574
1.118653
1.120470
1.118342
1.099699
1.109160
1.121752
1.126174
1.121942
1.089195
1.096494
1.099997
1.111745
1.105850
1.115924
1.115105
1.113160
1.104159
1.103362
1.108875
1.097623
1.108228
1.115788
1.108159
1.113184
1.118101
1.081709
1.081357
1.077385
1.086020
1.089660
1.083806
1.082378
1.086601
1.087103
1.091088
1.086405
1.089660
1.090167
1.090598
1.092426
1.091445
1.091760
1.091738
1.098123
1.047305
1.045264
1.052000
1.047593
1.050829
1.055444
1.050386
1.043058
1.051471
1.011767
1.018308
1.021679
1.045579
1.041585
1.020924
1.048479
1.043847
1.046837
1.050553
1.044703
1.044913
1.040265
1.036944
1.037165
1.042413
1.032054
1.041853
1.038969
1.043287
1.038240
1.044395
1.031884
1.028477
1.037820
1.033660
1.029753
1.043072
1.021801
1.035186
1.043144
1.039490
1.039049
1.051151
1.063079
1.055704
1.053085
1.053203
1.056098
1.060606
1.061805
1.063239
1.058231
1.056107
1.042628
1.042019
1.049409
1.041479
1.038794
1.028595
1.032523
1.032183
1.033803
1.041221
1.034411
1.033870
1.088560
1.079965
1.058238
1.069865
1.085026
1.081128
1.082163
1.072775
1.068064
1.070054
1.076044
1.060798
1.075867
1.072631
1.074023
1.080541
1.070835
1.069622
1.067608
1.065385
1.069556
1.083023
1.073755
1.079133
1.084329
1.080298
1.079581
1.077079
1.081338
1.080111
1.077173
1.081855
1.083531
1.076124
1.083040
1.077390
1.079737
1.041414
1.048730
1.065283
1.070748
1.067112
1.070921
1.066129
1.058289
1.061172
1.079112
1.066552
1.070427
1.067709
1.061154
1.065991
1.070781
1.073764
1.073465
1.050283
1.061619
1.057473
1.058097
1.062811
1.061627
1.060817
1.063396
1.063619
1.061895
1.063034
1.051284
1.050524
1.051074
1.051775
1.056375
1.058906
1.060949
1.012693
0.998241
1.008531
1.010520
1.007393
1.025947
1.030161
1.029324
1.033935
1.024711
1.022436
1.023818
1.025290
1.025907
1.018358
1.012350
1.013770
1.019290
1.023253
1.022046
1.023244
1.024563
1.019614
1.026982
1.017941
1.024823
1.017041
1.021846
1.028515
1.022713
1.017416
1.019964
0.970669
0.975265
0.971361
0.971435
0.982933
0.975921
0.977425
0.977470
1.013672
1.015375
1.022267
0.980066
0.981442
0.984596
0.979410
0.986626
0.983516
1.000027
1.010489
1.003121
0.984044
0.993875
0.990523
0.984999
0.997323
0.997569
0.998788
0.990696
0.995234
0.990495
0.990874
0.994233
0.992254
0.987056
0.994978
0.991189
0.989543
0.986948
0.986628
0.992613
0.974951
0.972475
0.972628
0.979907
0.976362
1.018137
1.009103
1.015848
1.014824
1.018215
1.009429
1.012927
1.010205
1.010389
1.013520
1.010059
1.003243
1.001901
1.011294
1.003563
1.003586
1.005332
1.011028
1.000624
0.983794
1.012553
1.005779
0.999457
1.003282
1.005887
1.000604
1.004131
1.000914
1.000921
1.003273
0.999446
1.000578
1.004116
1.006702
1.007005
1.002198
0.983967
0.993892
0.996182
0.995908
1.002970
0.995879
1.001739
0.989558
0.993705
0.986006
0.985370
0.990555
0.994084
1.002115
0.996647
1.013668
1.010486
1.006510
1.007242
1.002836
0.994357
0.999220
0.999225
0.993810
1.011587
1.007339
1.005317
0.981531
0.981775
0.978639
0.983808
0.981907
0.985053
0.981834
0.981730
0.985320
0.989200
0.976709
0.976489
0.983708
0.973979
0.980419
0.963790
0.975381
0.969435
0.960432
0.966567
0.974355
0.965216
0.971398
0.972733
0.973458
0.962581
0.904760
-1.186692
-1.726638
-1.143873
-1.312611
-1.236931
-1.140928
0.305747
-0.773796
-0.142972
-0.578168
-0.024979
-0.538802
-0.082940
0.641326
1.192501
1.804548
2.350937
-2.999914
-2.015747
-1.596851
-0.746702
0.800415
1.843371
4.145542
4.040475
2.384744
1.812050
2.271826
3.046459
3.012350
1.913645
0.511655
1.806173
-2.771675
-3.312058
-0.747157
-1.834100
-1.777533
5.014554
4.232123
5.035651
2.821006
10.478000
10.478000
8.732412
10.478000
10.478000
10.478000
10.478000
10.478000
8.717286
10.478000
10.478000
10.478000
8.444694
10.478000
10.478000
10.478000
10.478000
8.446535
7.073293
8.517031
7.830687
10.478000
7.588711
10.478000
8.798740
10.478000
10.478000
10.478000
10.478000
6.979461
9.084844
7.096999
7.045834
8.562119
7.287861
8.611709
10.478000
7.483160
10.478000
8.809246
10.478000
10.478000
10.478000
10.478000
7.386064
7.152313
8.726691
6.890661
8.389760
7.003278
8.561068
6.360746
8.399033
6.675708
8.653717
7.162270
7.187794
4.633634
5.336004
4.185894
2.384721
8.661732
10.478000
8.276702
10.478000
7.206559
10.478000
8.712586
10.478000
7.300794
-7.338956
-2.782075
-4.897824
-4.334252
-5.439981
-7.299927
-7.685348
-7.781478
-8.674626
-7.377043
-8.593877
-10.478000
-10.478000
-10.478000
-10.478000
-8.677045
-7.338956
-8.905376
-10.478000
-10.478000
-10.478000
-10.478000
-10.478000
-6.710764
-8.298876
-10.478000
-10.478000
-10.478000
-8.876881
-10.478000
-10.478000
-10.478000
-10.478000
-10.478000
-10.478000
-8.672703
-10.478000
-8.919371
-6.492282
-10.478000
-8.488706
-10.478000
-10.478000
-10.478000
-10.478000
-7.146129
-6.942486
-7.338957
-8.562117
-7.803972
-10.478000
-8.804468
-7.338957
-10.478000
-8.968340
-9.157612
-10.478000
-10.478000
-10.478000
-10.478000
-7.338957
-7.279948
-7.338957
-9.175991
-6.922072
-7.800518
-4.827766
-3.039230
-4.297681
-7.277959
-4.755902
-7.394770
2.405100
-5.200547
-3.842924
-2.446317
-5.366509
0.637843
-2.225598
2.223244
0.374909
4.837551
3.487430
4.892640
1.153880
0.979035
0.977611
0.979744
0.980522
0.982011
0.981738
0.978720
0.976995
0.979532
0.979017
0.980407
0.980271
0.978008
0.978858
0.981459
0.980677
0.979825
0.981718
0.983060
0.983620
0.982461
0.977399
0.974199
0.979146
0.978768
0.969609
0.975982
0.970428
0.972846
0.977999
0.977977
0.977196
0.976153
0.976999
0.975682
0.977419
0.973946
0.973349
0.974310
0.973665
0.968752
0.979205
0.975580
0.973657
0.974070
0.969875
0.968636
0.969139
0.969524
0.970486
0.971206
0.972033
0.969439
0.970774
0.971847
0.971088
0.972648
0.970909
0.972391
0.972304
0.973123
0.973580
0.973686
0.970156
0.869313
0.898599
0.887451
0.886436
0.891248
0.888858
0.868227
0.868466
0.873436
0.957991
0.956832
0.958219
0.959574
0.960198
0.961497
0.960685
0.959445
0.960000
0.946921
0.955052
0.956731
0.955619
0.952558
0.960086
0.957309
0.959103
0.955586
0.951562
0.950899
0.962076
0.961184
0.960391
0.959009
0.957729
0.964896
0.961539
0.962895
0.960471
0.962663
0.961465
0.962743
0.963624
0.959750
0.960067
0.969295
0.966729
0.970171
0.969649
0.968358
0.969006
0.968841
0.967697
0.965901
0.960695
0.969548
0.967569
0.966712
0.965929
0.964151
0.963459
0.961715
0.958845
0.956084
0.944267
0.965924
0.965058
0.964604
0.963747
0.964839
0.962148
0.960752
0.952002
0.933316
0.905962
0.926415
0.888387
0.954465
0.893519
0.942308
0.903633
0.909767
0.935133
0.926884
0.915589
0.922522
0.908970
0.934649
0.902309
0.870563
0.887655
0.957476
0.954804
0.948165
0.949321
0.956337
0.952607
0.955394
0.953605
0.957629
0.957012
0.955184
0.954845
0.951129
0.955181
0.954115
0.950112
0.948407
0.941206
0.915265
0.924497
0.907996
0.887360
0.894103
0.922958
0.903250
0.910769
0.933510
0.924443
0.918495
0.935679
0.905795
0.888969
0.869239
0.816877
0.818056
0.802314
0.821437
0.819614
0.802402
0.789085
0.783298
0.807370
0.763430
0.854678
0.837211
0.831961
0.849164
0.829627
0.848160
0.851472
0.872038
0.878641
0.880076
0.850828
0.836501
0.876666
0.852199
0.831996
1.352580
0.934209
0.931652
0.937481
0.939052
0.936552
0.938987
0.938039
0.936932
0.934722
0.937322
0.933993
0.935974
0.938510
0.937676
0.935571
0.934781
0.936018
0.936913
0.930280
0.922745
0.939598
0.938519
0.941077
0.941517
0.941369
0.943433
0.942438
0.940821
0.943926
0.950290
0.946330
0.943721
0.951618
0.950779
0.949294
0.949923
0.950297
0.947361
0.944276
0.943427
0.939727
0.943623
0.942361
0.941867
0.930658
0.944466
0.941245
0.939822
0.939891
0.947284
0.947905
0.947431
0.946015
0.945103
0.941329
0.948224
0.946473
0.947762
0.949737
0.946638
0.949068
0.947333
0.945460
0.947995
0.944053
0.944094
0.940763
0.944432
0.945013
0.945725
0.943952
0.940995
0.950826
0.951969
0.952951
0.950174
0.948133
0.951915
0.952906
0.953099
0.954190
0.940954
0.940704
0.950963
0.949913
0.940391
0.935931
0.940988
0.933269
0.901947
0.928429
0.914932
0.901944
0.914912
0.915057
0.908227
0.906257
0.921474
0.928125
0.936561
0.892106
0.887655
0.883824
0.889123
0.869172
0.886967
0.882104
0.900540
0.902461
0.897860
0.874420
0.848844
1.235489
1.192047
1.886712
1.855293
0.914360
0.878887
0.893653
0.896332
0.912476
0.903542
0.947565
0.919929
0.930985
0.974413
1.016943
1.052097
1.030787
1.042093
1.029952
1.038842
1.033485
1.020300
1.019196
1.020541
0.974474
0.990022
0.989779
1.003904
1.002438
1.004277
1.002954
1.002390
1.017435
1.020556
1.026345
1.011560
1.023602
1.007100
1.001678
1.003095
1.024676
0.974529
1.012362
1.008810
0.993490
0.995573
0.923066
0.941541
0.922591
0.895768
0.909491
0.896902
0.905874
0.969927
0.950754
0.929788
0.987191
0.963457
0.984071
0.987549
0.983341
0.982962
0.966095
0.926897
0.944965
0.967426
0.943941
0.979349
0.961536
0.987802
0.965102
0.945551
0.965125
0.928601
0.947122
0.909664
0.918461
0.898363
0.878640
0.908584
0.905501
0.938079
0.985541
0.953836
0.964097
0.964586
0.923753
0.928154
0.940372
0.946938
0.955840
1.112630
1.112812
1.113621
1.115351
1.114294
1.112765
1.108229
1.115328
1.117152
1.118545
1.105482
1.105438
1.105282
1.094143
1.099190
1.112141
1.114491
1.115216
1.114222
1.103736
1.115895
1.114569
1.113444
1.115109
1.112781
1.111737
1.110408
1.112337
1.121926
1.121968
1.121317
1.118947
1.119828
1.117970
1.118175
1.117163
1.113968
1.120300
1.118122
1.120741
1.117881
1.118408
1.117404
1.115130
1.115063
1.119635
1.112550
1.116300
1.118085
1.115956
1.117216
1.113428
1.108610
1.120447
1.120909
1.117802
1.112269
1.112286
1.043096
1.062836
1.053477
1.060427
1.070866
1.086350
1.079046
1.099190
1.099967
1.078497
1.031517
1.122570
1.123315
1.123552
1.122495
1.124910
1.123961
1.123826
1.121588
1.124395
1.124207
1.122309
1.121973
1.099003
1.094387
1.107584
1.109692
1.104127
1.109665
1.108062
1.107013
1.111377
1.110699
1.109715
1.112129
1.110658
1.111592
1.109663
1.110700
1.107750
1.105451
1.107763
1.108439
1.104440
1.111797
1.109598
1.026385
1.004623
1.041102
1.022224
1.022172
1.084998
1.078542
1.064397
1.069544
1.074725
1.106793
1.104309
1.096606
1.095966
1.102687
1.097116
1.089495
1.093904
1.089275
1.088488
1.035373
1.047373
1.051266
1.042542
1.057000
1.039059
1.085023
1.060020
1.077457
1.070224
1.059664
1.048944
1.136934
1.131950
1.135061
1.133022
1.134072
1.133757
1.134857
1.136029
1.132326
1.138493
1.130754
1.137900
1.136594
1.135039
1.136857
1.133781
1.136809
1.137626
1.134138
1.139311
1.139104
1.136884
1.117135
1.133166
1.131670
1.133285
1.132267
1.130212
1.133208
1.131462
1.130563
1.133633
1.133873
1.123963
1.126843
1.126382
1.123194
1.125446
1.126687
1.126915
1.126441
1.122961
1.124782
1.126782
1.125221
1.122724
1.132120
1.130485
1.126465
1.127602
1.131704
1.123475
1.131703
1.129961
1.129059
1.128976
1.129741
1.123111
1.128563
1.125949
1.127150
1.121478
1.126912
1.126748
1.127590
1.122070
1.082768
1.069880
1.073880
1.069503
1.065054
1.041179
1.022283
1.108595
1.061961
1.080020
1.080099
1.070006
1.076320
1.039506
1.056675
1.055820
1.095258
1.086905
1.087182
1.073658
1.069910
1.067488
1.070284
1.065088
1.067811
1.074633
1.074921
1.076545
1.072043
1.075011
1.078465
1.086671
1.082235
1.083700
1.077801
1.071655
1.075337
1.074128
1.082907
1.084934
1.094153
1.088602
1.087028
1.087094
1.091806
1.089272
1.080333
1.083264
1.101084
1.119906
1.109291
1.109630
1.110581
1.112342
1.110743
1.113674
1.115850
1.120680
1.120287
1.119986
1.115519
1.114334
1.118006
1.119210
1.117164
1.118004
1.122770
1.117875
1.093811
1.098518
1.098384
1.096406
1.096851
1.095162
1.093226
1.092691
1.100088
1.097686
1.096087
1.104030
1.102853
1.105167
1.103796
1.101289
1.098846
1.108551
1.108473
1.107377
1.104129
1.106121
1.104943
1.103613
1.101646
1.113164
1.118497
1.108160
1.105020
1.099578
1.109318
1.107902
1.111874
1.107838
1.099405
1.106441
1.106695
1.099578
1.109162
1.092458
1.090428
1.091327
1.091735
1.092318
1.080055
1.084686
1.087391
1.085932
1.089800
1.088582
1.093796
1.089633
1.090789
1.085574
1.085302
1.080315
1.096592
1.106870
1.108493
1.098138
1.103452
1.101239
1.103095
1.100916
1.104530
1.106241
1.104644
1.104912
1.105824
1.103181
1.106634
1.107241
1.104346
1.093768
1.099275
1.096473
1.101080
1.096742
1.098823
1.103112
1.103482
1.102845
1.103054
1.102655
1.103679
1.099565
1.094378
1.102877
1.092977
1.092493
1.095373
1.088341
1.093717
1.094778
1.095360
1.093515
1.092736
1.091671
1.097897
1.096806
1.099029
1.096307
1.096918
1.098497
1.097470
1.098585
1.092378
1.093786
1.098692
1.099865
1.099634
1.097728
1.096864
1.094635
1.092501
1.096231
1.095207
1.095581
1.093245
1.089887
1.099412
1.096760
1.102317
1.101051
1.102034
1.100089
1.098463
1.097261
1.094266
1.100378
1.100155
1.100667
1.098479
1.092883
1.090675
1.094082
1.093257
1.088041
1.109012
1.109247
1.108070
0.997037
0.993605
1.004246
0.977054
1.004013
1.005255
0.969827
0.975977
0.996696
0.985615
0.987774
0.991464
0.982063
0.992178
1.000861
1.046510
1.047908
1.048917
1.044008
1.055546
1.054001
1.056091
1.055877
1.054687
1.055486
1.056925
1.057276
1.057224
1.054164
1.053928
1.048952
1.049894
1.055230
1.050628
1.052163
1.047266
1.052423
1.049169
1.050723
1.050751
1.048710
1.050798
1.054454
1.053541
1.055425
1.046850
1.055419
1.053363
1.052547
1.053321
1.051096
1.050968
1.048339
1.050322
1.045463
1.046615
1.042399
1.015666
1.022188
1.009774
1.048280
1.043439
1.045848
1.019833
1.047214
1.037124
1.038856
1.018388
1.032354
1.011418
1.024465
1.030914
1.014413
1.028144
1.027722
1.032779
1.044668
1.036914
1.033063
1.011275
1.058067
1.056906
1.052599
1.055984
1.056681
1.058327
1.054039
1.058296
1.058899
1.058635
1.060017
1.057232
1.059580
1.060311
1.055192
1.056058
1.048428
1.050360
1.065066
1.062735
1.069696
1.066042
1.067726
1.066101
1.067827
1.066631
1.068059
1.068793
1.064869
1.069497
1.067302
1.061129
1.058505
1.060424
1.061999
1.059157
1.059916
1.061839
1.061657
1.062940
1.063776
1.062917
1.066575
1.065114
1.052399
1.047289
1.055399
1.063857
1.065359
1.063524
1.061214
1.064899
1.055467
1.059779
1.064322
1.060114
1.059817
1.059025
1.064615
1.054483
1.030297
1.042396
1.051020
1.049420
1.035216
1.035524
1.023321
1.036946
1.028805
1.029929
1.041568
1.040813
1.037376
1.040775
1.046432
1.046987
1.047256
1.047749
1.041858
1.041575
1.040996
1.041249
1.042504
1.038957
1.037384
1.044809
1.043984
1.042126
1.043143
1.043945
1.041831
1.043062
1.039712
1.042914
1.040868
1.040510
1.040667
1.035985
1.037568
1.040463
1.045146
1.045486
1.044224
1.046634
1.046099
1.044231
1.028634
1.047657
1.048552
1.046132
1.091104
1.088816
1.077138
1.075280
1.075144
1.085845
1.068308
1.056630
1.037631
1.090611
1.087360
1.085044
1.086957
1.087861
1.089543
1.090446
1.090078
1.087779
1.089065
1.087455
1.089020
1.084283
1.088313
1.086656
1.086804
1.086093
1.084787
1.086967
1.083270
1.085370
1.084515
1.085539
1.086552
1.077152
1.080424
1.077336
1.070915
1.067077
1.047517
1.056835
1.082378
1.080139
1.084254
1.084497
1.082977
1.082421
1.075933
1.085156
1.074331
1.084098
1.071034
1.050626
1.034963
1.008207
1.002229
1.031837
1.015225
1.026578
1.032437
1.022667
1.036283
1.019801
1.017916
1.078906
1.079059
1.079892
1.060504
1.071916
1.073078
1.076265
1.072090
1.075311
1.065936
1.075894
1.082079
1.081260
1.079389
1.078289
1.080583
1.079635
1.078852
1.077816
1.083518
1.081525
1.081087
1.081111
1.081182
1.079058
1.075142
1.073457
1.068451
1.065711
1.056113
1.058427
1.057057
1.069955
1.068898
1.069260
1.070453
1.067440
1.070028
1.065773
1.071282
1.069797
1.058469
1.075410
1.072404
1.068427
1.065928
1.069707
1.070695
1.067473
1.073448
1.070141
1.072607
1.071911
1.071702
1.073009
1.069456
1.072823
1.071029
1.071565
1.067726
1.069999
1.068663
1.064317
1.042594
1.040337
1.035979
1.036141
1.067028
1.065572
1.048805
1.052565
1.049306
1.069736
1.077432
1.078665
1.075378
1.076917
1.074685
1.074746
1.076245
1.076462
1.075914
1.077368
1.071881
1.074671
1.075406
1.074195
1.003569
0.971085
1.021614
0.998655
0.971300
0.981289
0.989541
1.004873
0.997602
1.017854
0.994775
0.988964
1.001783
1.019837
1.022794
1.019855
1.019343
1.024800
1.022758
1.023636
1.024850
1.026687
1.025916
1.023779
1.026655
0.998540
1.017985
1.032216
1.026794
1.036201
1.035947
1.037676
1.039008
1.039586
1.036466
1.038022
1.038008
1.039057
1.037769
1.036130
1.036727
1.024337
1.024602
1.030429
1.032049
1.027041
1.029962
1.030531
1.027550
1.028564
1.020434
1.032083
1.029221
1.031801
1.026148
1.030891
1.037475
1.022832
1.018043
1.020161
1.033323
1.029859
1.027877
1.034320
1.032339
1.031696
1.028663
1.029525
1.034084
1.032247
1.029089
1.029569
1.034104
1.031904
1.026223
1.028023
1.034304
1.037068
1.035278
1.035442
1.035107
1.036315
1.032350
1.035777
1.034031
1.033358
1.032892
1.033443
1.031562
1.034067
1.035252
1.015619
1.025918
1.026135
1.025463
1.023541
1.023092
1.017235
1.027239
1.027462
1.028174
1.026347
1.029209
1.028858
1.026670
1.027244
1.011073
0.935008
0.937789
0.980866
0.970510
0.981964
0.980631
0.975434
0.955337
0.953847
0.967286
0.955578
0.981588
0.959293
0.938682
0.964878
0.926120
0.947639
0.966925
0.966376
0.947898
0.983670
0.964542
0.978882
0.954308
0.984734
0.981495
0.981992
0.987076
0.984561
0.987607
0.987646
0.986377
0.989074
0.988716
0.980228
0.987051
0.985425
0.983970
0.982415
0.982858
0.982150
0.984827
0.984141
0.980557
0.985764
0.984580
0.983668
0.979538
0.978222
0.936329
0.916359
0.945866
0.881862
0.925897
0.904349
0.905360
0.926552
0.926505
0.961879
0.946668
0.862588
0.821490
0.820820
0.802560
0.823651
0.805628
0.821602
0.821642
0.840707
0.829684
0.862223
0.841780
0.792983
0.792763
0.836495
0.834029
0.858925
0.812009
0.811964
0.826117
0.866510
0.812037
0.860319
0.826918
0.831124
0.838245
0.832439
0.844787
0.860483
0.820896
0.808509
0.858429
0.824750
0.843927
0.836056
0.841843
0.856925
0.861721
0.982080
1.009928
1.017753
1.020842
1.020347
1.025154
1.021894
1.023765
1.020686
1.018562
1.020710
1.021480
1.023647
1.021586
1.022204
1.020277
1.022410
1.016999
1.017690
1.018526
1.019960
1.020097
1.016762
1.015255
1.017248
1.018946
1.019858
1.017118
1.018121
0.984490
0.986632
0.987085
0.991045
0.992739
0.992772
0.991941
0.994550
0.995157
0.993309
0.988681
0.990503
0.990289
0.989535
0.991465
0.990889
0.990645
0.993605
0.994526
0.993783
0.992660
0.994024
0.989288
0.995159
0.994675
0.994998
0.996422
0.993477
0.993030
0.983598
1.000157
0.998268
0.998768
0.999774
1.000090