VARIABLES="X","Y","Z",Cp
ZONE T="Element0"
Nodes=28016, Elements=9137, ZONETYPE=FETRIANGLE
DATAPACKING=BLOCK
VARLOCATION = ([4] = CELLCENTERED)
0.806000
0.937949
0.934411
0.891401
0.870972
0.861574
0.857822
0.848379
0.810152
0.803754
0.787685
0.453109
0.776531
0.780510
0.795488
0.796633
0.801667
0.904038
0.903469
0.902388
0.902874
0.908302
0.904457
0.906543
0.906969
0.907706
0.904824
0.905408
0.905825
0.909986
0.909317
0.908954
0.910333
0.911966
0.911000
0.911371
0.900231
0.900808
0.901444
0.901954
0.939071
0.938507
0.937401
0.935976
0.936706
0.936369
0.934848
0.935492
0.933824
0.932739
0.933301
0.932279
0.925022
0.923958
0.924480
0.923230
0.922693
0.922333
0.912517
0.916116
0.915246
0.914913
0.914535
0.913813
0.913333
0.913027
0.921702
0.919248
0.919612
0.918624
0.921201
0.920633
0.920205
0.917952
0.917535
0.917216
0.916718
0.930013
0.930798
0.931340
0.927444
0.927064
0.927961
0.925624
0.926674
0.926087
0.928602
0.929604
0.929214
0.931809
0.899743
0.897212
0.897686
0.898224
0.899288
0.898720
0.896739
0.896238
0.895563
0.894833
0.894466
0.893436
0.893067
0.892431
0.893780
0.874668
0.873379
0.874109
0.872581
0.872939
0.879728
0.879338
0.891018
0.890343
0.889843
0.884187
0.885104
0.884745
0.886164
0.885776
0.880291
0.880819
0.881228
0.881693
0.882919
0.882445
0.883615
0.888282
0.889316
0.888852
0.886926
0.887879
0.887487
0.875715
0.877179
0.876273
0.876765
0.877763
0.878851
0.878368
0.875357
0.891948
0.594644
0.620416
0.624620
0.604636
0.655953
0.637311
0.870471
0.872032
0.871504
0.858975
0.860960
0.859540
0.859927
0.860314
0.861978
0.862518
0.825967
0.825429
0.826474
0.858366
0.857413
0.828367
0.831804
0.830531
0.831085
0.832751
0.832359
0.829074
0.829676
0.830100
0.833277
0.833940
0.834436
0.834889
0.827446
0.827887
0.826869
0.857008
0.855884
0.854854
0.855402
0.856344
0.852795
0.852340
0.853302
0.850527
0.850923
0.851575
0.853880
0.854296
0.848964
0.849471
0.850132
0.835531
0.836042
0.837122
0.836546
0.841622
0.841101
0.840182
0.840582
0.838546
0.839711
0.839164
0.838145
0.837519
0.842188
0.845566
0.843824
0.844934
0.844475
0.843358
0.842926
0.846319
0.847929
0.847476
0.846766
0.845977
0.869973
0.868959
0.869498
0.868296
0.865648
0.865157
0.866394
0.863097
0.863621
0.864199
0.864654
0.867235
0.866892
0.867901
0.816600
0.815012
0.814473
0.816132
0.815694
0.824722
0.822775
0.822402
0.824305
0.823329
0.823937
0.818902
0.816942
0.818023
0.817298
0.818437
0.821324
0.820702
0.821826
0.819615
0.820082
0.641545
0.655359
0.667929
0.670550
0.702881
0.686172
0.812930
0.814071
0.813302
0.765589
0.773621
0.757181
0.752859
0.811645
0.812309
0.811169
0.809663
0.808568
0.808949
0.810813
0.788511
0.808017
0.803212
0.807567
0.806672
0.807170
0.799824
0.689040
0.719606
0.706837
0.734501
0.731646
0.437670
0.436749
0.411478
0.412229
0.413997
0.415335
0.413125
0.416304
0.432417
0.433081
0.434102
0.425480
0.426304
0.427230
0.428267
0.431424
0.430739
0.429064
0.429704
0.418650
0.419366
0.420118
0.422768
0.422118
0.421095
0.423539
0.417496
0.424593
0.436019
0.435236
0.409699
0.408889
0.410428
0.407755
0.390348
0.389661
0.389002
0.387408
0.392324
0.391475
0.394755
0.393008
0.393946
0.406579
0.405407
0.404514
0.403651
0.402924
0.399430
0.400154
0.401787
0.400801
0.398333
0.397331
0.395861
0.396523
0.438375
0.439230
0.440124
0.441226
0.442078
0.455567
0.454354
0.443864
0.442817
0.449775
0.447401
0.448298
0.448965
0.451956
0.450989
0.446299
0.445026
0.465559
0.464473
0.463206
0.457685
0.458399
0.456963
0.462177
0.461531
0.459317
0.460397
0.475366
0.476142
0.477094
0.474545
0.466302
0.467476
0.470459
0.469041
0.468263
0.472598
0.473666
0.471707
0.589173
0.553563
0.573591
0.541613
0.440511
0.468546
0.403661
0.422765
0.521791
0.505438
0.488735
0.357960
0.371142
0.392391
0.336411
0.322494
0.573149
0.534132
0.550492
0.900538
0.901791
0.899706
0.903910
0.902688
0.901840
0.906436
0.904106
0.905312
0.906270
0.904146
0.902451
0.905144
0.907587
0.906327
0.905127
0.909004
0.910068
0.899442
0.899410
0.887482
0.936419
0.935279
0.937846
0.934242
0.934007
0.932909
0.933860
0.931637
0.933455
0.933438
0.932884
0.931712
0.932373
0.930469
0.930597
0.919762
0.916021
0.923460
0.923306
0.922699
0.922013
0.919647
0.920720
0.920507
0.913603
0.910655
0.912416
0.912513
0.912728
0.919715
0.917598
0.918414
0.915312
0.919530
0.918559
0.917265
0.916114
0.911256
0.913783
0.914931
0.928986
0.929222
0.923649
0.925565
0.926857
0.925637
0.925114
0.924527
0.927909
0.929078
0.927986
0.840606
0.881188
0.898440
0.895886
0.897956
0.896945
0.896935
0.894437
0.894458
0.893763
0.890423
0.891465
0.891791
0.893263
0.891127
0.631598
0.872783
0.871630
0.870980
0.870693
0.873254
0.878922
0.876668
0.888571
0.889371
0.888883
0.882764
0.877136
0.879004
0.879291
0.881497
0.880212
0.880164
0.878952
0.881556
0.881945
0.887524
0.885075
0.886162
0.884049
0.871765
0.872929
0.874386
0.875645
0.876691
0.875478
0.876715
0.890953
0.890486
0.889541
0.847481
0.848795
0.867119
0.650845
0.651294
0.865522
0.869525
0.870205
0.870432
0.850505
0.860163
0.857647
0.856828
0.859769
0.857901
0.858421
0.862608
0.863658
0.863577
0.862172
0.861193
0.861112
0.862123
0.809437
0.809570
0.824411
0.857746
0.856455
0.857168
0.856398
0.854576
0.827538
0.826543
0.830116
0.828632
0.830012
0.829992
0.831395
0.830366
0.827785
0.826599
0.833714
0.832582
0.832437
0.822851
0.824869
0.812388
0.854061
0.850373
0.848288
0.849041
0.851404
0.851488
0.848886
0.852636
0.849892
0.846627
0.848125
0.848187
0.847502
0.818923
0.834471
0.839627
0.839498
0.838284
0.839116
0.837507
0.838476
0.837136
0.834083
0.840924
0.839329
0.837048
0.839381
0.841903
0.843180
0.845589
0.847681
0.846778
0.844253
0.844701
0.867328
0.865742
0.867165
0.866041
0.866993
0.865071
0.729703
0.814958
0.800969
0.804350
0.816768
0.817078
0.814045
0.815411
0.814748
0.816795
0.813437
0.813523
0.786545
0.823025
0.824064
0.820576
0.820724
0.821641
0.818283
0.818199
0.819316
0.819104
0.964525
0.781820
0.811065
0.811370
0.811224
0.810891
0.809568
0.809581
0.807257
0.808487
0.808384
0.809423
0.805067
0.805597
0.804385
0.806016
0.805117
0.805285
0.418126
0.411753
0.394268
0.484290
0.574553
0.495915
0.415758
0.305745
0.812157
0.864682
0.863417
0.868513
0.846046
0.836947
0.834484
0.855348
0.825401
0.830000
0.825264
0.827222
0.868276
0.873335
0.882182
0.877680
0.877999
0.911402
0.897426
0.901070
0.758819
0.998513
1.098171
0.694282
1.110725
1.234075
0.748809
0.781709
0.932663
1.024407
1.097193
1.032042
1.184441
0.888950
0.821517
0.852027
0.859160
0.860319
1.370076
0.810409
0.721121
1.140740
0.797401
0.790369
0.836995
0.852065
0.816274
0.880725
0.901197
0.932302
0.897861
0.755448
0.771528
0.775400
0.795680
0.942917
0.518620
0.735750
0.755755
0.888558
0.869745
0.871757
0.878889
0.878223
0.898323
0.908002
0.907318
0.917761
0.874166
0.890591
0.886918
0.898934
0.894237
0.889712
0.897735
0.898007
0.898864
0.897490
0.890274
0.870335
0.879344
0.829960
0.831537
0.830393
0.839331
0.836759
0.840472
0.841546
0.841750
0.859740
0.850260
0.849854
0.851196
0.846177
0.859846
0.859591
1.370044
0.650689
0.730492
0.809739
0.812271
0.804477
0.802842
0.812515
0.821715
0.817662
0.832015
0.821409
0.807272
0.825425
0.823668
0.781672
0.792651
0.792380
0.754535
0.777409
0.793144
0.793955
1.115567
1.134691
0.817172
0.850112
0.827941
0.827734
0.854538
0.870652
0.849847
0.869464
1.022279
1.024275
0.946513
0.879477
0.938496
0.828537
0.772813
0.782549
0.785189
0.773933
0.781427
0.783019
0.795741
0.787007
0.789404
0.831540
0.789900
1.356804
1.534702
0.812440
0.923694
1.069917
1.048281
1.232908
1.152676
0.291601
0.401120
0.563179
0.492155
0.539359
0.636247
0.616415
0.855623
0.896072
0.895985
0.893721
0.896123
0.893824
0.896090
0.898977
0.893604
0.897617
0.894312
0.895486
0.897355
0.907143
0.898845
0.899971
0.900634
0.885941
0.888890
0.878455
0.866882
0.876609
0.891032
0.881729
0.880172
0.892022
0.892133
0.889282
0.886489
0.888941
0.879968
0.887271
0.889598
0.923971
0.917140
0.917562
0.907300
0.915264
0.907257
0.913009
0.929738
0.930151
0.927267
0.932736
0.927119
0.924281
0.927150
0.924652
0.931208
0.922839
0.929811
0.921524
0.931104
0.922887
0.924256
0.913176
0.917589
0.919941
0.919693
0.914558
0.915143
0.917520
0.913674
0.907100
0.919749
0.919542
0.924544
0.924412
0.928061
0.909280
0.912977
0.921474
0.918070
0.915205
0.915555
0.913025
0.918163
0.913728
0.915481
0.918573
0.910119
0.908161
0.898110
0.887771
0.888061
0.896988
0.895604
0.901124
0.909934
0.911307
0.902239
0.902503
0.908175
0.908737
0.905184
0.905337
0.904729
0.908719
0.909175
0.905633
0.904070
0.910081
0.912285
0.909937
0.885716
0.900137
0.908187
0.907795
0.908873
0.909573
0.918492
0.893298
0.885536
0.888872
0.885880
0.875066
0.881206
0.890218
0.888221
0.891889
0.885437
0.883884
0.890278
0.886057
0.863228
0.868538
0.861817
0.862166
0.858403
0.871953
0.869962
0.876056
0.869329
0.863238
0.880996
0.859940
0.870030
0.871946
0.872791
0.874595
0.871545
0.866704
0.866152
0.865431
0.869976
0.869601
0.871905
0.872572
0.864836
0.878791
0.873725
0.874043
0.876118
0.879728
0.883407
0.880355
0.876696
0.869316
0.870726
0.866425
0.867580
0.888591
0.882481
0.884605
0.876433
0.877148
0.869433
0.870307
0.827684
0.840793
0.846369
0.839988
0.841154
0.853993
0.848171
0.846398
0.850842
0.851432
0.853349
0.862744
0.861523
0.857233
0.863240
0.857248
0.860487
0.850031
0.861253
0.856865
0.857250
0.859913
0.857826
0.859713
1.552424
0.748789
0.709216
0.630333
0.671756
0.648921
0.685911
0.723071
0.802992
0.638715
0.683210
0.653497
0.726252
0.731495
0.763495
0.848057
0.846185
0.854755
0.849751
0.847432
0.851961
0.846268
0.850699
0.853245
0.853280
0.858712
0.861468
0.858950
0.851870
0.855656
0.859284
0.851328
0.801393
0.808050
0.810220
0.812153
0.813516
0.811354
0.840320
0.831901
0.842696
0.850658
0.847776
0.855277
0.844470
0.847227
0.851434
0.847948
0.850957
0.847677
0.831112
0.836623
0.841739
0.830642
0.816495
0.819222
0.824746
0.824582
0.822586
0.817347
0.819044
0.822560
0.817964
0.818657
0.821540
0.822051
0.824226
0.822239
0.832806
0.833432
0.831096
0.850179
0.845147
0.841137
0.838345
0.837976
0.841674
0.838127
0.837919
0.841123
0.837875
0.831306
0.845870
0.843597
0.844395
0.845016
0.848557
0.840548
0.829855
0.839114
0.846349
0.842489
0.843967
0.847488
0.839151
0.835713
0.827706
0.827263
0.832147
0.829213
0.829204
0.830866
0.828458
0.828336
0.831985
0.822761
0.810678
0.822762
0.822759
0.824158
0.823213
0.825034
0.831329
0.833521
0.833366
0.833424
0.833774
0.840997
0.838963
0.840128
0.836373
0.820271
0.874255
0.828693
0.848847
0.802538
0.810156
0.792530
0.804606
0.813034
0.808110
0.804883
0.805532
0.792760
0.797373
0.798590
0.794076
0.806390
0.812540
0.811221
0.808952
0.813340
0.808035
0.808826
0.812059
0.790837
0.800189
0.803233
0.821905
0.818642
0.815752
0.800207
0.802433
0.809578
0.804863
0.796966
1.022484
0.780116
0.801182
0.826083
0.832158
0.855634
0.953146
0.935392
0.899828
0.927747
0.892289
0.764001
0.891378
0.820185
0.842231
0.835604
0.869474
0.866896
0.835383
0.850191
0.838712
0.836153
0.806848
0.798428
0.776272
0.794664
0.804301
0.800274
0.801767
0.798472
0.800875
0.803289
0.806689
0.792654
0.785883
0.783244
0.799466
0.796580
0.797318
0.786103
0.787969
0.820869
0.833442
0.827899
0.824436
0.802254
0.794806
0.801794
0.810830
0.793228
0.814644
0.793673
0.795679
0.796082
0.812962
0.800757
0.804844
0.815942
0.814930
0.805994
0.802315
0.798782
0.807202
0.738734
0.901166
0.825531
0.865349
0.856121
0.699356
0.678764
0.770714
0.746909
0.726327
0.809927
0.805437
0.870804
0.914426
0.879864
0.952044
0.971730
0.979525
1.029787
0.751856
0.745103
0.876245
1.044709
1.051341
1.217673
1.216106
0.989067
1.543122
1.256330
0.426864
0.444649
0.444645
0.455433
0.454219
0.445100
0.434423
0.432893
0.445730
0.426725
0.415912
0.415858
0.405958
0.416381
0.406489
0.410493
0.418964
0.392377
0.458294
0.463698
0.474440
0.477048
0.463858
0.466547
0.486574
0.485222
0.473098
0.472540
0.502649
0.486912
0.492372
0.491371
0.478718
0.502029
0.485881
0.492389
0.485754
0.478282
0.904760
0.305747
0.317812
0.612504
0.412259
0.313429
0.574642
0.614762
0.590424
0.552051
0.481401
0.516517
0.650925
0.420752
0.497133
0.465328
0.493995
0.517809
0.562798
0.459925
0.395644
0.397648
0.357236
0.366125
0.389446
0.344015
0.263098
0.277466
0.328238
0.607912
0.571147
0.905403
0.649622
0.714823
0.716081
0.693176
0.702199
0.678708
0.660617
0.661518
0.678907
0.808960
0.789945
0.809407
0.818056
0.802314
0.777524
0.797300
0.706117
0.728826
0.709912
0.709681
0.706089
0.728788
0.744429
0.730912
0.735588
0.734538
0.811131
0.708138
0.726444
0.780899
0.790769
0.797898
0.782255
0.783193
0.764241
0.745277
0.745309
0.764527
0.745941
0.726974
0.767147
0.753013
0.773723
0.788389
0.752956
0.774609
0.781940
0.789085
0.744573
0.765337
0.743635
0.730004
0.763430
0.762751
0.829627
0.829238
0.851472
0.821849
0.872038
0.878641
0.858591
0.880076
0.820669
0.860818
0.840501
0.876666
0.823989
0.858790
0.838236
0.831996
0.841793
0.806728
0.803513
0.791428
0.788480
0.804023
0.406904
0.498459
0.572263
0.502281
0.519696
0.513657
0.535207
0.554528
0.405911
0.425984
0.492377
0.437884
0.440856
0.457090
0.472270
0.478821
0.465488
0.455491
0.487401
0.506495
0.449325
0.468336
0.468369
0.487428
0.468410
0.455495
0.449288
0.433645
0.429649
0.395420
0.510044
0.508350
0.504900
0.475648
0.488552
0.507156
0.492831
0.506599
0.497390
0.506527
0.487467
0.506555
0.468462
0.474429
0.487501
0.489594
0.470072
0.462296
0.484690
0.456120
0.640099
0.601972
0.621036
0.621053
0.601982
0.582891
0.640072
0.656614
0.583475
0.569728
0.621019
0.601960
0.582937
0.621097
0.602008
0.602009
0.621080
0.640163
0.640180
0.659185
0.582960
0.563871
0.621118
0.602029
0.659238
0.629942
0.640103
0.659213
0.640164
0.659158
0.657561
0.621082
0.640145
0.621068
0.640125
0.674139
0.667342
0.671545
0.659118
0.659697
0.690163
0.685971
0.689825
0.688904
0.677015
0.675940
0.688797
0.675929
0.675941
0.689381
0.559055
0.611507
0.591845
0.582916
0.563803
0.582889
0.563821
0.563804
0.601995
0.582901
0.601993
0.582916
0.563862
0.563840
0.547486
0.525617
0.544704
0.521629
0.544691
0.525767
0.544811
0.525683
0.544749
0.525730
0.544777
0.525639
0.544721
0.525652
0.544740
0.528687
0.649591
0.695370
0.676048
0.719113
0.662228
0.676761
0.696033
0.766167
0.745161
0.783112
0.794869
0.764155
0.781957
0.764073
0.778749
0.763198
0.708252
0.746774
0.726305
0.819737
0.693135
0.718160
0.716241
0.719098
0.732219
0.754208
0.773677
0.784785
0.798626
0.795706
0.812107
0.813491
0.745239
0.724255
0.769169
0.787654
0.773640
0.755345
0.799287
0.807986
0.784448
0.773546
0.787639
0.773587
0.784963
0.804913
0.737778
0.736989
0.735671
0.754642
0.754597
0.735156
0.754559
0.754666
0.785482
0.769370
0.764476
0.827030
0.860918
0.822886
0.841750
0.819915
0.839908
0.801952
0.888394
0.894168
0.898866
0.895958
0.894094
0.899103
0.898085
0.900379
0.898642
0.896437
0.898242
0.899267
0.892811
0.900188
0.898937
0.894909
0.897600
0.895390
0.902928
0.901394
0.901640
0.901506
0.901403
0.905310
0.906264
0.906956
0.903437
0.905438
0.906701
0.903222
0.900054
0.902708
0.902735
0.903245
0.904159
0.904687
0.905000
0.902315
0.904337
0.905057
0.905376
0.906251
0.904279
0.903027
0.903131
0.901220
0.902302
0.906084
0.907829
0.906510
0.904165
0.902743
0.908527
0.907275
0.906140
0.910239
0.907765
0.908830
0.909823
0.906631
0.902476
0.898179
0.898915
0.899561
0.897840
0.892955
0.884280
0.877636
0.890864
0.935051
0.936500
0.935571
0.934781
0.936913
0.937309
0.935993
0.935380
0.936138
0.931761
0.933389
0.932598
0.934623
0.931064
0.933926
0.935064
0.934876
0.936097
0.932467
0.933784
0.931773
0.930280
0.922745
0.917856
0.896928
0.933206
0.926584
0.928429
0.914327
0.924653
0.922535
0.917175
0.931392
0.932819
0.929131
0.927300
0.926467
0.924125
0.924077
0.930858
0.930153
0.929090
0.931232
0.927599
0.929533
0.927098
0.921263
0.931270
0.921826
0.912648
0.906879
0.922176
0.922173
0.923286
0.921360
0.922400
0.920510
0.921471
0.919499
0.914904
0.908050
0.914168
0.905680
0.921288
0.922172
0.915653
0.917519
0.916819
0.911745
0.919177
0.920646
0.918761
0.918566
0.920560
0.920695
0.919020
0.916957
0.921816
0.876421
0.898483
0.895464
0.899001
0.895124
0.908720
0.905483
0.907430
0.909471
0.904104
0.913871
0.914346
0.913974
0.912441
0.913464
0.907349
0.911038
0.912590
0.910785
0.912308
0.909745
0.903965
0.905225
0.918130
0.915987
0.912875
0.917678
0.916321
0.919676
0.918645
0.916805
0.916890
0.916465
0.919303
0.918156
0.917161
0.916321
0.913474
0.911962
0.915564
0.916332
0.911215
0.902765
0.906393
0.903105
0.915252
0.914971
0.912242
0.914900
0.913913
0.915352
0.911967
0.913066
0.912035
0.887563
0.899325
0.896013
0.907501
0.867203
0.896982
0.885239
0.887769
0.880950
0.883721
0.889590
0.881050
0.897142
0.878750
0.882857
0.879706
0.894063
0.929082
0.927026
0.928565
0.921349
0.920784
0.922645
0.924505
0.925660
0.926339
0.927064
0.926217
0.925024
0.926758
0.923582
0.924463
0.922980
0.920565
0.927360
0.926720
0.928346
0.926229
0.928070
0.926846
0.924338
0.922354
0.901947
0.914932
0.887655
0.889123
0.869172
0.880226
0.869105
0.886967
0.882104
0.897860
0.874420
0.848844
0.859647
0.872025
0.859584
0.870470
0.806811
0.784883
0.789320
0.794282
0.814457
0.778816
0.790356
0.795842
0.811603
0.812242
0.811508
0.859502
0.837620
0.816642
0.842660
0.864724
0.850289
0.831202
0.842962
0.849596
0.832872
0.844878
0.830057
0.876986
0.849732
0.832858
0.864621
0.850100
0.830073
0.851577
0.830906
0.799906
0.821563
0.870453
0.863982
0.860512
0.817619
0.869009
0.818356
0.830010
0.847742
0.848508
0.853110
0.827485
0.835586
0.858580
0.850033
0.831450
0.817480
0.859435
0.872728
0.821389
0.832475
0.853642
0.851256
0.839583
0.838607
0.862826
0.803556
0.804429
0.802179
0.869880
0.863033
0.867077
0.850898
0.865918
0.858926
0.886263
0.881601
0.893774
0.894520
0.893348
0.896108
0.893259
0.894895
0.895706
0.895795
0.896604
0.897973
0.898092
0.895642
0.893240
0.895211
0.894607
0.893886
0.894371
0.888219
0.886660
0.888526
0.888016
0.888773
0.892382
0.893467
0.893920
0.891920
0.891841
0.893083
0.885005
0.883339
0.892779
0.891624
0.890713
0.890019
0.889897
0.890819
0.893000
0.891855
0.893228
0.497066
0.573339
0.535181
0.535155
0.535158
0.516085
0.512935
0.554249
0.555164
0.455633
0.460442
0.443697
0.458837
0.461279
0.462820
0.464350
0.449196
0.451810
0.425564
0.430783
0.439397
0.477464
0.516491
0.477892
0.496988
0.498744
0.496962
0.478232
0.516062
0.481474
0.477970
0.497019
0.477935
0.506102
0.488570
0.468300
0.489259
0.467815
0.469679
0.449172
0.449699
0.459659
0.450339
0.614026
0.604834
0.618889
0.623016
0.615934
0.605267
0.608451
0.604628
0.622730
0.610093
0.609669
0.612405
0.617077
0.606712
0.618907
0.610229
0.611815
0.667900
0.671489
0.633275
0.646546
0.671285
0.668432
0.667791
0.651353
0.636195
0.651457
0.544521
0.548725
0.543487
0.541871
0.562272
0.584087
0.542130
0.564004
0.547485
0.563501
0.567385
0.583106
0.670061
0.652628
0.565994
0.619184
0.637646
0.620915
0.632581
0.637477
0.620878
0.650606
0.584115
0.582797
0.601872
0.601871
0.601883
0.611872
0.629712
0.626710
0.611359
0.610957
0.675443
0.643219
0.666673
0.657649
0.656046
0.543755
0.582875
0.564752
0.564868
0.620985
0.639999
0.640032
0.621015
0.620992
0.652725
0.601948
0.601946
0.583076
0.583082
0.601931
0.601913
0.618067
0.582627
0.563628
0.628405
0.582650
0.596513
0.609892
0.600251
0.610488
0.600148
0.612205
0.647806
0.629870
0.602313
0.624550
0.630061
0.582774
0.613931
0.601794
0.616947
0.601776
0.621213
0.627848
0.645937
0.632605
0.675622
0.653880
0.582882
0.582819
0.564123
0.565353
0.620841
0.620859
0.601830
0.601845
0.543334
0.668717
0.662194
0.619561
0.622117
0.626097
0.648146
0.671400
0.655191
0.634570
0.650857
0.633457
0.666762
0.656360
0.665978
0.667535
0.673559
0.650152
0.544327
0.546045
0.541881
0.563740
0.605758
0.598004
0.582693
0.582760
0.563723
0.606727
0.600173
0.582711
0.582729
0.543339
0.564212
0.563363
0.543683
0.545337
0.563646
0.563676
0.545986
0.544016
0.614645
0.598918
0.622061
0.601516
0.616344
0.605961
0.603002
0.617127
0.622307
0.620105
0.599301
0.626421
0.602309
0.594797
0.620390
0.616845
0.602702
0.600073
0.602510
0.636535
0.620861
0.620424
0.671472
0.665969
0.648783
0.668625
0.668580
0.668519
0.649597
0.631177
0.649637
0.544544
0.543969
0.544446
0.544418
0.563545
0.578207
0.541936
0.563500
0.544069
0.562013
0.561953
0.572713
0.597015
0.576230
0.605749
0.625293
0.603484
0.625676
0.634043
0.667935
0.668159
0.648235
0.648932
0.595654
0.543751
0.582581
0.562934
0.563041
0.630251
0.630910
0.628586
0.650645
0.614600
0.595470
0.582554
0.583280
0.594189
0.610108
0.592016
0.612851
0.615510
0.667670
0.665997
0.649502
0.559390
0.563392
0.574176
0.635428
0.629785
0.630558
0.649786
0.613320
0.592723
0.596489
0.613775
0.594394
0.580031
0.608130
0.601641
0.606682
0.621075
0.619441
0.616416
0.640140
0.641071
0.638532
0.638643
0.659167
0.661588
0.639895
0.639851
0.639949
0.651635
0.670226
0.653426
0.655571
0.640031
0.640072
0.685891
0.680181
0.690137
0.677615
0.680413
0.705980
0.659029
0.658974
0.667440
0.706182
0.673027
0.691363
0.681541
0.678428
0.709085
0.671094
0.684992
0.689000
0.676869
0.687013
0.658826
0.709752
0.678009
0.676310
0.692412
0.639624
0.656840
0.639990
0.676889
0.674395
0.685532
0.710307
0.670424
0.658930
0.658864
0.693952
0.693086
0.697688
0.745004
0.709337
0.726612
0.725414
0.735030
0.740590
0.693974
0.715389
0.714408
0.725462
0.684737
0.695263
0.720303
0.698481
0.703366
0.864640
0.859604
0.870086
0.871464
0.872060
0.864460
0.871310
0.868842
0.871737
0.872957
0.872766
0.868237
0.870856
0.870137
0.868871
0.866952
0.867178
0.873236
0.869678
0.866618
0.868614
0.865841
0.869698
0.873925
0.875574
0.874526
0.876570
0.874232
0.877908
0.879056
0.876276
0.877336
0.870452
0.876278
0.881329
0.886229
0.888407
0.887280
0.887640
0.884038
0.888341
0.883302
0.883624
0.882859
0.884086
0.860877
0.866090
0.865403
0.866606
0.871885
0.865553
0.877076
0.874708
0.878665
0.879108
0.878611
0.876311
0.881012
0.880901
0.880295
0.880437
0.880645
0.878615
0.880222
0.877217
0.869180
0.874285
0.881589
0.879392
0.881770
0.876758
0.880856
0.878685
0.879476
0.876719
0.874115
0.881438
0.886510
0.884829
0.887245
0.884693
0.881895
0.882194
0.879815
0.872864
0.875321
0.883827
0.884723
0.886560
0.885204
0.885259
0.885119
0.882953
0.883658
0.883142
0.872958
0.864419
0.869513
0.873513
0.872999
0.872533
0.870623
0.874257
0.874793
0.876173
0.875082
0.874300
0.876774
0.875410
0.875182
0.874024
0.890679
0.887851
0.890326
0.889073
0.889576
0.887849
0.887177
0.886406
0.882932
0.880103
0.877136
0.853607
0.811260
0.779250
0.764741
0.745856
0.790952
0.791812
0.754101
0.770048
0.759524
0.776429
0.776417
0.759382
0.726490
0.747823
0.716238
0.716389
0.842987
0.821205
0.836774
0.831546
0.822943
0.821358
0.829896
0.794511
0.813029
0.760946
0.767115
0.728568
0.748203
0.735347
0.745353
0.746200
0.757638
0.731212
0.776097
0.802496
0.800769
0.778304
0.782232
0.782875
0.802700
0.762911
0.784165
0.729839
0.743295
0.761631
0.803838
0.717707
0.681088
0.697968
0.699249
0.658880
0.678149
0.678190
0.691782
0.715912
0.747543
0.756912
0.732768
0.739883
0.757886
0.783091
0.773180
0.778266
0.760751
0.753876
0.751837
0.771669
0.704687
0.695828
0.710378
0.706043
0.688822
0.820844
0.812151
0.807124
0.801853
0.813548
0.702492
0.735710
0.713463
0.773320
0.764470
0.764217
0.789632
0.797558
0.783080
0.797840
0.782992
0.773678
0.785710
0.777331
0.785439
0.758066
0.731265
0.724864
0.747003
0.743053
0.742175
0.724516
0.764309
0.744189
0.766533
0.721476
0.828886
0.644561
0.639995
0.640876
0.697310
0.677291
0.704290
0.690633
0.678230
0.711505
0.713691
0.704421
0.710525
0.694684
0.697269
0.656678
0.660712
0.680716
0.659532
0.656226
0.677385
0.792884
0.811808
0.807967
0.807582
0.810666
0.792817
0.792270
0.785164
0.797941
0.747417
0.689923
0.688431
0.706916
0.685203
0.684017
0.687755
0.703756
0.688650
0.722413
0.723798
0.729067
0.739086
0.725997
0.721723
0.706876
0.706835
0.705091
0.717014
0.718910
0.732851
0.687878
0.742625
0.763370
0.783353
0.794049
0.811889
0.811956
0.744895
0.706602
0.740861
0.706957
0.728813
0.729352
0.783052
0.747373
0.761954
0.768950
0.790510
0.795085
0.775835
0.778924
0.773618
0.759902
0.742454
0.736919
0.758299
0.753343
0.752852
0.729347
0.729649
0.788637
0.803059
0.700966
0.734312
0.706674
0.722019
0.719451
0.805563
0.795080
0.773883
0.792737
0.789216
0.773745
0.773813
0.754950
0.751347
0.739799
0.736940
0.757973
0.746573
0.750356
0.772273
0.745706
0.766918
0.782038
0.783147
0.767066
0.764280
0.724546
0.813390
0.822667
0.838730
0.829571
0.839051
0.857849
0.855608
0.856929
0.863037
0.856695
0.822866
0.832879
0.849070
0.839851
0.801475
0.801911
0.818528
0.810116
0.813589
0.832012
0.819996
0.831965
0.826431
0.840852
0.855390
0.845469
0.847088
0.860544
0.829702
0.867333
0.869761
0.810307
0.816630
0.845614
0.858859
0.852264
0.851183
0.821093
0.836754
0.828088
0.840838
0.846099
0.859744
0.825597
0.859748
0.826763
0.801534
0.802652
0.690341
0.644563
0.677829
0.640132
0.658731
0.640006
0.666077
0.643358
0.655583
0.634719
0.678554
0.627174
0.631951
0.631069
0.625118
0.655714
0.644751
0.658093
0.636808
0.643138
0.651938
0.645234
0.662118
0.631127
0.714840
0.717005
0.678636
0.698030
0.697166
0.672904
0.654667
0.630384
0.642319
0.645655
0.656992
0.640435
0.678643
0.693285
0.716437
0.659619
0.653210
0.698656
0.692933
0.682862
0.674771
0.716475
0.700013
0.678660
0.662945
0.721259
0.715504
0.682332
0.675874
0.703628
0.695826
0.639733
0.661107
0.627295
0.685225
0.705386
0.706542
0.686570
0.690292
0.688317
0.690185
0.702557
0.706131
0.685131
0.705490
0.723596
0.745116
0.725804
0.744065
0.743894
0.727644
0.706818
0.709453
0.725795
0.726296
0.730923
0.735555
0.745776
0.735469
0.754284
0.735517
0.749358
0.758581
0.771508
0.686234
0.690966
0.689723
0.593296
0.592192
0.594699
0.576657
0.571072
0.590585
0.565690
0.590110
0.555015
0.592358
0.591293
0.592067
0.594388
0.572668
0.569288
0.589648
0.573340
0.575452
0.593398
0.555381
0.554230
0.595062
0.576498
0.556053
0.535115
0.517122
0.496728
0.496840
0.534645
0.535390
0.552991
0.515477
0.537957
0.515000
0.553642
0.573268
0.573251
0.590709
0.553836
0.570774
0.595413
0.535999
0.573434
0.534654
0.535113
0.516728
0.554219
0.535123
0.553579
0.554559
0.513747
0.499362
0.496217
0.516601
0.523717
0.525487
0.525465
0.507771
0.475256
0.479627
0.487849
0.502695
0.525999
0.505006
0.504302
0.465119
0.484022
0.487438
0.507099
0.532351
0.527915
0.526557
0.357421
0.350250
0.350577
0.372952
0.376807
0.375681
0.365550
0.374461
0.435905
0.470999
0.448659
0.449707
0.469835
0.489353
0.554075
0.536493
0.572568
0.556922
0.532058
0.550645
0.506909
0.431241
0.487353
0.483083
0.444932
0.460799
0.469668
0.466995
0.447829
0.448125
0.430487
0.534595
0.516323
0.502446
0.522626
0.492399
0.474567
0.478339
0.478936
0.587689
0.581642
0.591759
0.570505
0.587936
0.576348
0.535610
0.535613
0.531730
0.549490
0.555498
0.554090
0.486662
0.509742
0.463447
0.415889
0.445861
0.428139
0.525125
0.490368
0.509591
0.469341
0.447469
0.429370
0.414788
0.395826
0.387557
0.393452
0.392396
0.410870
0.435123
0.390601
0.415078
0.389978
0.415115
0.406768
0.424160
0.526412
0.528064
0.528334
0.522400
0.490671
0.508608
0.525249
0.506317
0.522782
0.506790
0.509730
0.484929
0.393081
0.425452
0.408327
0.410233
0.522487
0.481282
0.503390
0.508917
0.450272
0.433643
0.430566
0.449562
0.449631
0.468629
0.470663
0.490509
0.488054
0.466016
0.469936
0.452842
0.426449
0.412390
0.409469
0.524694
0.485691
0.506266
0.503843
0.442333
0.430389
0.433603
0.447407
0.448596
0.453960
0.471260
0.489481
0.489991
0.468688
0.463236
0.471404
0.587777
0.572754
0.586126
0.554025
0.572194
0.582980
0.573046
0.585117
0.572423
0.555364
0.587247
0.566442
0.582271
0.560603
0.579001
0.577269
0.585665
0.550532
0.553917
0.567077
0.583149
0.581503
0.565212
0.582353
0.569979
0.567218
0.554492
0.557969
0.554007
0.548008
0.563551
0.534813
0.537661
0.555737
0.549589
0.535163
0.549972
0.585507
0.560221
0.525426
0.526111
0.525828
0.528062
0.525517
0.505589
0.524695
0.507503
0.505221
0.483140
0.475578
0.490435
0.510038
0.489749
0.524442
0.506223
0.573436
0.616494
0.630423
0.593077
0.589211
0.600516
0.633110
0.614526
0.609207
0.630517
0.630467
0.663061
0.649393
0.598813
0.556706
0.578667
0.649761
0.611578
0.613242
0.545426
0.681154
0.662571
0.633299
0.639189
0.655816
0.646628
0.629666
0.702799
0.668706
0.667475
0.690070
0.764616
0.645348
0.867876
0.868667
0.869612
0.869927
0.870198
0.868310
0.859932
0.861631
0.854747
0.854026
0.846173
0.848881
0.848065
0.856640
0.855441
0.858155
0.858409
0.860260
0.857979
0.856515
0.857336
0.858480
0.859532
0.858518
0.859763
0.862368
0.859168
0.860066
0.855486
0.855788
0.860573
0.862213
0.861126
0.861118
0.859056
0.857724
0.859489
0.855240
0.862543
0.860728
0.862164
0.859421
0.858103
0.859600
0.854842
0.773032
0.800105
0.773440
0.790793
0.787670
0.799839
0.796227
0.804592
0.792542
0.801899
0.787233
0.816309
0.812053
0.822863
0.824341
0.824092
0.839856
0.857381
0.855813
0.856758
0.855172
0.856473
0.847584
0.850492
0.852863
0.854740
0.854557
0.829687
0.827222
0.825979
0.827576
0.826015
0.826439
0.824589
0.825573
0.826236
0.827642
0.827488
0.828330
0.828879
0.828990
0.830002
0.828577
0.829966
0.824168
0.826414
0.829397
0.831860
0.831069
0.830507
0.827971
0.824656
0.828079
0.827718
0.832339
0.829528
0.831793
0.830949
0.824966
0.821565
0.822058
0.820009
0.826279
0.824971
0.821968
0.816729
0.826581
0.821755
0.827680
0.817513
0.852923
0.850234
0.851742
0.852645
0.854262
0.853270
0.852095
0.845795
0.848668
0.850587
0.850817
0.850141
0.850192
0.849064
0.849227
0.850294
0.849972
0.852744
0.850039
0.851527
0.852171
0.849974
0.849013
0.849300
0.846071
0.846811
0.847978
0.847675
0.847025
0.846764
0.848087
0.845108
0.845852
0.854845
0.844631
0.842075
0.839528
0.813355
0.831105
0.819731
0.819970
0.826090
0.833433
0.836448
0.833502
0.811782
0.821565
0.826901
0.818591
0.821613
0.817275
0.811453
0.809078
0.816339
0.826207
0.833702
0.831825
0.830454
0.829304
0.829087
0.833759
0.833392
0.833231
0.831268
0.826435
0.838160
0.840635
0.831165
0.834847
0.836301
0.839798
0.837497
0.835622
0.837194
0.837700
0.839012
0.836196
0.836569
0.838106
0.837539
0.835798
0.835765
0.831949
0.830615
0.829122
0.835298
0.827201
0.835812
0.819293
0.839828
0.839830
0.840995
0.840757
0.841151
0.836928
0.840777
0.843190
0.841872
0.839796
0.842226
0.841784
0.843041
0.842056
0.840485
0.841933
0.837239
0.840632
0.838333
0.835888
0.830045
0.808581
0.828764
0.828919
0.827332