VARIABLES="X","Y","Z","Zone"
ZONE T="Element0"
Nodes=8320, Elements=4096, ZONETYPE=FEBRICK
DATAPACKING=BLOCK
VARLOCATION = ([4] = CELLCENTERED)
-0.010750
-0.026042
-0.046015
-0.070871
-0.100864
-0.136303
-0.177547
-0.225011
-0.279168
-0.340554
-0.409775
-0.487507
-0.574510
-0.671632
-0.779815
-0.900109
-1.033680
-1.181819
-1.345960
-1.527687
-1.728758
-1.951112
-2.196898
-2.468486
-2.768498
-3.099829
-3.465676
-3.869569
-4.315403
-4.807479
-5.350546
-5.949841
-6.611145
-7.340839
-8.145960
-9.034275
-10.014353
-11.095648
-12.288589
-13.604685
-15.056630
-16.658430
-18.425537
-20.374994
-22.525610
-24.898125
-27.515427
-30.402761
-33.587978
-37.101807
-40.978138
-45.254368
-49.971737
-55.175755
-60.916615
-67.249702
-74.236099
-81.943192
-90.445335
-99.824539
-110.171265
-121.585327
-134.176819
0.000000
-148.067215
-148.067215
-0.010750
-0.026042
-0.046015
-0.070871
-0.100864
-0.136303
-0.177547
-0.225011
-0.279168
-0.340554
-0.409775
-0.487507
-0.574510
-0.671632
-0.779815
-0.900109
-1.033680
-1.181819
-1.345960
-1.527687
-1.728758
-1.951112
-2.196898
-2.468486
-2.768498
-3.099829
-3.465676
-3.869569
-4.315403
-4.807479
-5.350546
-5.949841
-6.611145
-7.340839
-8.145960
-9.034275
-10.014353
-11.095648
-12.288589
-13.604685
-15.056630
-16.658430
-18.425537
-20.374994
-22.525610
-24.898125
-27.515427
-30.402761
-33.587978
-37.101807
-40.978138
-45.254368
-49.971737
-55.175755
-60.916615
-67.249702
-74.236099
-81.943192
-90.445335
-99.824539
-110.171265
-121.585327
-134.176819
0.000000
0.002497
0.009935
0.021936
0.038184
0.058427
0.082428
0.109947
0.140734
0.174531
0.211071
0.250074
0.291254
0.334312
0.378939
0.424815
0.471604
0.518955
0.566501
0.613855
0.660610
0.706341
0.750605
0.792942
0.832879
0.869938
0.903637
0.933498
0.959052
0.979841
0.995417
1.005317
1.008930
1.005317
0.995417
0.979841
0.959052
0.933498
0.903637
0.869938
0.832879
0.792942
0.750605
0.706341
0.660610
0.613855
0.566501
0.518955
0.471604
0.424815
0.378939
0.334312
0.291254
0.250074
0.211071
0.174531
0.140734
0.109947
0.082428
0.058427
0.038184
0.021936
0.009935
0.002497
0.002497
0.009935
0.021936
0.038184
0.058427
0.082428
0.109947
0.140734
0.174531
0.211071
0.250074
0.291254
0.334312
0.378939
0.424815
0.471604
0.518955
0.566501
0.613855
0.660610
0.706341
0.750605
0.792942
0.832879
0.869938
0.903637
0.933498
0.959052
0.979841
0.995417
1.005317
1.008930
1.005317
0.995417
0.979841
0.959052
0.933498
0.903637
0.869938
0.832879
0.792942
0.750605
0.706341
0.660610
0.613855
0.566501
0.518955
0.471604
0.424815
0.378939
0.334312
0.291254
0.250074
0.211071
0.174531
0.140734
0.109947
0.082428
0.058427
0.038184
0.021936
0.009935
0.002497
-0.008187
-0.000520
0.011841
0.028566
0.049410
0.074135
0.102498
0.134238
0.169082
0.206746
0.246929
0.289323
0.333605
0.379443
0.426490
0.474388
0.522765
0.571232
0.619384
0.666801
0.713046
0.757666
0.800198
0.840168
0.877103
0.910529
0.939982
0.965009
0.985180
1.000077
1.009297
1.012443
1.009297
1.000077
0.985180
0.965009
0.939982
0.910529
0.877103
0.840168
0.800198
0.757666
0.713046
0.666801
0.619384
0.571232
0.522765
0.474388
0.426490
0.379443
0.333605
0.289323
0.246929
0.206746
0.169082
0.134238
0.102498
0.074135
0.049410
0.028566
0.011841
-0.000520
-0.008187
-0.023378
-0.015395
-0.002550
0.014810
0.036439
0.062099
0.091539
0.124489
0.160661
0.199750
0.241436
0.285385
0.331251
0.378675
0.427286
0.476700
0.526521
0.576338
0.625728
0.674250
0.721455
0.766880
0.810052
0.850498
0.887741
0.921316
0.950767
0.975662
0.995593
1.010188
1.019118
1.022129
1.019118
1.010188
0.995593
0.975662
0.950767
0.921316
0.887741
0.850498
0.810052
0.766880
0.721455
0.674250
0.625728
0.576338
0.526521
0.476700
0.427286
0.378675
0.331251
0.285385
0.241436
0.199750
0.160661
0.124489
0.091539
0.062099
0.036439
0.014810
-0.002550
-0.015395
-0.023378
-0.043225
-0.034857
-0.021415
-0.003266
0.019336
0.046150
0.076916
0.111352
0.149152
0.189992
0.233529
0.279403
0.327242
0.376658
0.427253
0.478617
0.530327
0.581948
0.633032
0.683122
0.731748
0.778434
0.822698
0.864058
0.902037
0.936169
0.966008
0.991134
1.011163
1.025758
1.034643
1.037629
1.034643
1.025758
1.011163
0.991134
0.966008
0.936169
0.902037
0.864058
0.822698
0.778434
0.731748
0.683122
0.633032
0.581948
0.530327
0.478617
0.427253
0.376658
0.327242
0.279403
0.233529
0.189992
0.149152
0.111352
0.076916
0.046150
0.019336
-0.003266
-0.021415
-0.034857
-0.043225
-0.067933
-0.059116
-0.044966
-0.025875
-0.002106
0.026093
0.058450
0.094667
0.134421
0.177364
0.223127
0.271324
0.321552
0.373397
0.426428
0.480204
0.534275
0.588178
0.641439
0.693577
0.744102
0.792520
0.838335
0.881052
0.920189
0.955278
0.985876
1.011571
1.031996
1.046838
1.055852
1.058876
1.055852
1.046838
1.031996
1.011571
0.985876
0.955278
0.920189
0.881052
0.838335
0.792520
0.744102
0.693577
0.641439
0.588178
0.534275
0.480204
0.426428
0.373397
0.321552
0.271324
0.223127
0.177364
0.134421
0.094667
0.058450
0.026093
-0.002106
-0.025875
-0.044966
-0.059116
-0.067933
-0.097756
-0.088425
-0.073455
-0.053264
-0.028123
0.001705
0.035935
0.074251
0.116307
0.161730
0.210124
0.261073
0.314142
0.368883
0.424832
0.481516
0.538451
0.595143
0.651089
0.705780
0.758702
0.809337
0.857171
0.901696
0.942416
0.978857
1.010573
1.037157
1.058249
1.073550
1.082830
1.085941
1.082830
1.073550
1.058249
1.037157
1.010573
0.978857
0.942416
0.901696
0.857171
0.809337
0.758702
0.705780
0.651089
0.595143
0.538451
0.481516
0.424832
0.368883
0.314142
0.261073
0.210124
0.161730
0.116307
0.074251
0.035935
0.001705
-0.028123
-0.053264
-0.073455
-0.088425
-0.097756
-0.133001
-0.123088
-0.107181
-0.085719
-0.058991
-0.027273
0.009132
0.049887
0.094620
0.142932
0.194395
0.248558
0.304953
0.363093
0.422479
0.482600
0.542935
0.602955
0.662124
0.719899
0.775737
0.829095
0.879434
0.926226
0.968960
1.007149
1.040339
1.068121
1.090135
1.106087
1.115755
1.118994
1.115755
1.106087
1.090135
1.068121
1.040339
1.007149
0.968960
0.926226
0.879434
0.829095
0.775737
0.719899
0.662124
0.602955
0.542935
0.482600
0.422479
0.363093
0.304953
0.248558
0.194395
0.142932
0.094620
0.049887
0.009132
-0.027273
-0.058991
-0.085719
-0.107181
-0.123088
-0.133001
-0.174027
-0.163457
-0.146485
-0.123574
-0.095028
-0.061140
-0.022234
0.021326
0.069144
0.120785
0.175787
0.233664
0.293907
0.355988
0.419368
0.483494
0.547803
0.611726
0.674688
0.736110
0.795414
0.852024
0.905374
0.954910
1.000099
1.040438
1.075459
1.104744
1.127928
1.144716
1.154884
1.158290
1.154884
1.144716
1.127928
1.104744
1.075459
1.040438
1.000099
0.954910
0.905374
0.852024
0.795414
0.736110
0.674688
0.611726
0.547803
0.483494
0.419368
0.355988
0.293907
0.233664
0.175787
0.120785
0.069144
0.021326
-0.022234
-0.061140
-0.095028
-0.123574
-0.146485
-0.163457
-0.174027
-0.221245
-0.209938
-0.191764
-0.167209
-0.136595
-0.100235
-0.058478
-0.011715
0.039624
0.095070
0.154123
0.216253
0.280908
0.347516
0.415490
0.484231
0.553129
0.621571
0.688935
0.754602
0.817953
0.878374
0.935266
0.988043
1.036147
1.079050
1.116266
1.147363
1.171965
1.189770
1.200550
1.204160
1.200550
1.189770
1.171965
1.147363
1.116266
1.079050
1.036147
0.988043
0.935266
0.878374
0.817953
0.754602
0.688935
0.621571
0.553129
0.484231
0.415490
0.347516
0.280908
0.216253
0.154123
0.095070
0.039624
-0.011715
-0.058478
-0.100235
-0.136595
-0.167209
-0.191764
-0.209938
-0.221245
-0.275126
-0.262994
-0.243469
-0.217059
-0.184106
-0.144948
-0.099960
-0.049565
0.005772
0.065540
0.129196
0.196163
0.265842
0.337608
0.410824
0.484838
0.558988
0.632608
0.705028
0.775579
0.843596
0.908423
0.969419
1.025962
1.077460
1.123359
1.163148
1.196375
1.222649
1.241655
1.253159
1.257012
1.253159
1.241655
1.222649
1.196375
1.163148
1.123359
1.077460
1.025962
0.969419
0.908423
0.843596
0.775579
0.705028
0.632608
0.558988
0.484838
0.410824
0.337608
0.265842
0.196163
0.129196
0.065540
0.005772
-0.049565
-0.099960
-0.144948
-0.184106
-0.217059
-0.243469
-0.262994
-0.275126
-0.336204
-0.323149
-0.302110
-0.273615
-0.238030
-0.195718
-0.147086
-0.092592
-0.032743
0.031907
0.100766
0.173205
0.248570
0.326180
0.405339
0.485337
0.565455
0.644966
0.723144
0.799266
0.872612
0.942478
1.008176
1.069041
1.124444
1.173794
1.216553
1.252241
1.280451
1.300851
1.313195
1.317329
1.313195
1.300851
1.280451
1.252241
1.216553
1.173794
1.124444
1.069041
1.008176
0.942478
0.872612
0.799266
0.723144
0.644966
0.565455
0.485337
0.405339
0.326180
0.248570
0.173205
0.100766
0.031907
-0.032743
-0.092592
-0.147086
-0.195718
-0.238030
-0.273615
-0.302110
-0.323149
-0.336204
-0.405081
-0.390996
-0.368263
-0.337433
-0.298896
-0.253043
-0.200318
-0.141217
-0.076294
-0.006151
0.068563
0.147164
0.228934
0.313132
0.398995
0.485749
0.572607
0.658779
0.743474
0.825905
0.905295
0.980882
1.051923
1.117706
1.177555
1.230841
1.276989
1.315491
1.345914
1.367909
1.381216
1.385671
1.381216
1.367909
1.345914
1.315491
1.276989
1.230841
1.177555
1.117706
1.051923
0.980882
0.905295
0.825905
0.743474
0.658779
0.572607
0.485749
0.398995
0.313132
0.228934
0.147164
0.068563
-0.006151
-0.076294
-0.141217
-0.200318
-0.253043
-0.298896
-0.337433
-0.368263
-0.390996
-0.405081
-0.482430
-0.467199
-0.442575
-0.409136
-0.367297
-0.317482
-0.260173
-0.195911
-0.125301
-0.049002
0.032279
0.117791
0.206751
0.298345
0.391740
0.486087
0.580526
0.674193
0.766226
0.855768
0.941973
1.024015
1.101090
1.172431
1.237309
1.295049
1.345036
1.386727
1.419660
1.443464
1.457863
1.462683
1.457863
1.443464
1.419660
1.386727
1.345036
1.295049
1.237309
1.172431
1.101090
1.024015
0.941973
0.855768
0.766226
0.674193
0.580526
0.486087
0.391740
0.298345
0.206751
0.117791
0.032279
-0.049002
-0.125301
-0.195911
-0.260173
-0.317482
-0.367297
-0.409136
-0.442575
-0.467199
-0.482430
-0.569007
-0.552500
-0.525772
-0.489423
-0.443899
-0.389660
-0.327231
-0.257205
-0.180240
-0.097058
-0.008435
0.084808
0.181812
0.281685
0.383513
0.486365
0.589299
0.691370
0.791633
0.889153
0.983010
1.072302
1.156158
1.233748
1.304283
1.367036
1.421346
1.466629
1.502391
1.528234
1.543863
1.549096
1.543863
1.528234
1.502391
1.466629
1.421346
1.367036
1.304283
1.233748
1.156158
1.072302
0.983010
0.889153
0.791633
0.691370
0.589299
0.486365
0.383513
0.281685
0.181812
0.084808
-0.008435
-0.097058
-0.180240
-0.257205
-0.327231
-0.389660
-0.443899
-0.489423
-0.525772
-0.552500
-0.569007
-0.665655
-0.647730
-0.618661
-0.579073
-0.529445
-0.470278
-0.402144
-0.325690
-0.241640
-0.150782
-0.053968
0.047901
0.153883
0.262998
0.374242
0.486594
0.599019
0.710482
0.819947
0.926391
1.028807
1.126214
1.217664
1.302251
1.379125
1.447496
1.506652
1.555963
1.594897
1.623027
1.640038
1.645732
1.640038
1.623027
1.594897
1.555963
1.506652
1.447496
1.379125
1.302251
1.217664
1.126214
1.028807
0.926391
0.819947
0.710482
0.599019
0.486594
0.374242
0.262998
0.153883
0.047901
-0.053968
-0.150782
-0.241640
-0.325690
-0.402144
-0.470278
-0.529445
-0.579073
-0.618661
-0.647730
-0.665655
-0.773312
-0.753814
-0.722144
-0.678957
-0.624766
-0.560117
-0.485635
-0.402029
-0.310093
-0.210691
-0.104758
0.006717
0.122697
0.242107
0.363843
0.486782
0.609787
0.731721
0.851448
0.967847
1.079814
1.186277
1.286202
1.378604
1.462557
1.537204
1.601774
1.655586
1.698066
1.728753
1.747307
1.753518
1.747307
1.728753
1.698066
1.655586
1.601774
1.537204
1.462557
1.378604
1.286202
1.186277
1.079814
0.967847
0.851448
0.731721
0.609787
0.486782
0.363843
0.242107
0.122697
0.006717
-0.104758
-0.210691
-0.310093
-0.402029
-0.485635
-0.560117
-0.624766
-0.678957
-0.722144
-0.753814
-0.773312
-0.893023
-0.871780
-0.837225
-0.790042
-0.730783
-0.660045
-0.578511
-0.486960
-0.386259
-0.277362
-0.161293
-0.039140
0.087957
0.218816
0.352221
0.486936
0.621713
0.755299
0.886447
1.013926
1.136526
1.253074
1.362439
1.463545
1.555384
1.637025
1.707627
1.766456
1.812888
1.846425
1.866700
1.873486
1.866700
1.846425
1.812888
1.766456
1.707627
1.637025
1.555384
1.463545
1.362439
1.253074
1.136526
1.013926
0.886447
0.755299
0.621713
0.486936
0.352221
0.218816
0.087957
-0.039140
-0.161293
-0.277362
-0.386259
-0.486960
-0.578511
-0.660045
-0.730783
-0.790042
-0.837225
-0.871780
-0.893023
-1.025947
-1.002770
-0.965016
-0.913401
-0.848522
-0.771029
-0.681670
-0.581301
-0.470874
-0.351437
-0.224116
-0.090108
0.049332
0.192903
0.339267
0.487063
0.634916
0.781447
0.925285
1.065076
1.199495
1.327252
1.447111
1.557895
1.658502
1.747919
1.825232
1.889640
1.940467
1.977174
1.999363
2.006789
1.999363
1.977174
1.940467
1.889640
1.825232
1.747919
1.658502
1.557895
1.447111
1.327252
1.199495
1.065076
0.925285
0.781447
0.634916
0.487063
0.339267
0.192903
0.049332
-0.090108
-0.224116
-0.351437
-0.470874
-0.581301
-0.681670
-0.771029
-0.848522
-0.913401
-0.965016
-1.002770
-1.025947
-1.173370
-1.148052
-1.106754
-1.050229
-0.979121
-0.894140
-0.796108
-0.685963
-0.564754
-0.433630
-0.293832
-0.146678
0.006452
0.164123
0.324861
0.487167
0.649526
0.810421
0.968340
1.121796
1.269330
1.409529
1.541036
1.662563
1.772906
1.870957
1.955719
2.026323
2.082031
2.122258
2.146573
2.154709
2.146573
2.122258
2.082031
2.026323
1.955719
1.870957
1.772906
1.662563
1.541036
1.409529
1.269330
1.121796
0.968340
0.810421
0.649526
0.487167
0.324861
0.164123
0.006452
-0.146678
-0.293832
-0.433630
-0.564754
-0.685963
-0.796108
-0.894140
-0.979121
-1.050229
-1.106754
-1.148052
-1.173370
-1.336718
-1.309030
-1.263809
-1.201847
-1.123841
-1.030568
-0.922930
-0.801957
-0.668803
-0.524733
-0.371113
-0.209393
-0.041096
0.132199
0.308866
0.487253
0.665690
0.842503
1.016031
1.184634
1.346709
1.500701
1.645123
1.778561
1.899699
2.007324
2.100348
2.177821
2.238943
2.283073
2.309746
2.318671
2.309746
2.283073
2.238943
2.177821
2.100348
2.007324
1.899699
1.778561
1.645123
1.500701
1.346709
1.184634
1.016031
0.842503
0.665690
0.487253
0.308866
0.132199
-0.041096
-0.209393
-0.371113
-0.524733
-0.668803
-0.801957
-0.922930
-1.030568
-1.123841
-1.201847
-1.263809
-1.309030
-1.336718
-1.517569
-1.487259
-1.437698
-1.369720
-1.284081
-1.181630
-1.063359
-0.930401
-0.784025
-0.625624
-0.456702
-0.278857
-0.093767
0.096826
0.291130
0.487323
0.683563
0.878007
1.068820
1.254199
1.432378
1.601649
1.760375
1.907009
2.040104
2.158335
2.260512
2.345596
2.412714
2.461170
2.490454
2.500252
2.490454
2.461170
2.412714
2.345596
2.260512
2.158335
2.040104
1.907009
1.760375
1.601649
1.432378
1.254199
1.068820
0.878007
0.683563
0.487323
0.291130
0.096826
-0.093767
-0.278857
-0.456702
-0.625624
-0.784025
-0.930401
-1.063359
-1.181630
-1.284081
-1.369720
-1.437698
-1.487259
-1.517569
-1.717670
-1.684461
-1.630100
-1.555469
-1.461385
-1.348783
-1.218751
-1.072534
-0.911531
-0.737276
-0.551425
-0.355739
-0.152069
0.057664
0.271484
0.487381
0.703323
0.917275
1.127219
1.331163
1.527165
1.713346
1.887906
2.049145
2.195475
2.325446
2.437754
2.531264
2.605020
2.658264
2.690439
2.701204
2.690439
2.658264
2.605020
2.531264
2.437754
2.325446
2.195475
2.049145
1.887906
1.713346
1.527165
1.331163
1.127219
0.917275
0.703323
0.487381
0.271484
0.057664
-0.152069
-0.355739
-0.551425
-0.737276
-0.911531
-1.072534
-1.218751
-1.348783
-1.461385
-1.555469
-1.630100
-1.684461
-1.717670
-1.938953
-1.902540
-1.842873
-1.760886
-1.657468
-1.533642
-1.390604
-1.229728
-1.052552
-0.860765
-0.656193
-0.440779
-0.216562
0.014338
0.249741
0.487429
0.725159
0.960689
1.191791
1.416271
1.631987
1.836872
2.028946
2.206340
2.367312
2.510269
2.633785
2.736614
2.817714
2.876254
2.911628
2.923462
2.911628
2.876254
2.817714
2.736614
2.633785
2.510269
2.367312
2.206340
2.028946
1.836872
1.631987
1.416271
1.191791
0.960689
0.725159
0.487429
0.249741
0.014338
-0.216562
-0.440779
-0.656193
-0.860765
-1.052552
-1.229728
-1.390604
-1.533642
-1.657468
-1.760886
-1.842873
-1.902540
-1.938953
-2.183554
-2.143600
-2.078071
-1.987954
-1.874219
-1.737989
-1.580578
-1.403499
-1.208447
-0.997282
-0.772018
-0.534796
-0.287868
-0.033570
0.225691
0.487468
0.749286
1.008670
1.263162
1.510344
1.747856
1.973419
2.184856
2.380111
2.557271
2.714587
2.850494
2.963628
3.052847
3.117243
3.156153
3.169170
3.156153
3.117243
3.052847
2.963628
2.850494
2.714587
2.557271
2.380111
2.184856
1.973419
1.747856
1.510344
1.263162
1.008670
0.749286
0.487468
0.225691
-0.033570
-0.287868
-0.534796
-0.772018
-0.997282
-1.208447
-1.403499
-1.580578
-1.737989
-1.874219
-1.987954
-2.078071
-2.143600
-2.183554
-2.453835
-2.409969
-2.337962
-2.238865
-2.113732
-1.963796
-1.790505
-1.595524
-1.380719
-1.148143
-0.900016
-0.638698
-0.366673
-0.086521
0.199104
0.487500
0.775935
1.061679
1.342020
1.614290
1.875889
2.124305
2.357141
2.572135
2.767185
2.940370
3.089971
3.214494
3.312687
3.383554
3.426372
3.440696
3.426372
3.383554
3.312687
3.214494
3.089971
2.940370
2.767185
2.572135
2.357141
2.124305
1.875889
1.614290
1.342020
1.061679
0.775935
0.487500
0.199104
-0.086521
-0.366673
-0.638698
-0.900016
-1.148143
-1.380719
-1.595524
-1.790505
-1.963796
-2.113732
-2.238865
-2.337962
-2.409969
-2.453835
-2.752402
-2.704217
-2.625056
-2.516039
-2.378316
-2.213242
-2.022410
-1.807654
-1.571031
-1.314804
-1.041420
-0.753485
-0.453737
-0.145024
0.169725
0.487526
0.805367
1.120231
1.429128
1.729114
2.017322
2.290985
2.547462
2.784264
2.999079
3.189795
3.354526
3.491631
3.599738
3.677755
3.724891
3.740659
3.724891
3.677755
3.599738
3.491631
3.354526
3.189795
2.999079
2.784264
2.547462
2.290985
2.017322
1.729114
1.429128
1.120231
0.805367
0.487526
0.169725
-0.145024
-0.453737
-0.753485
-1.041420
-1.314804
-1.571031
-1.807654
-2.022410
-2.213242
-2.378316
-2.516039
-2.625056
-2.704217
-2.752402
-3.082138
-3.029183
-2.942122
-2.822150
-2.670525
-2.488734
-2.278530
-2.041935
-1.781217
-1.498871
-1.197595
-0.880264
-0.549899
-0.209644
0.137270
0.487548
0.837864
1.184890
1.525326
1.855923
2.173520
2.475068
2.757656
3.018544
3.255189
3.465268
3.646710
3.797712
3.916769
4.002684
4.054589
4.071951
4.054589
4.002684
3.916769
3.797712
3.646710
3.465268
3.255189
3.018544
2.757656
2.475068
2.173520
1.855923
1.525326
1.184890
0.837864
0.487548
0.137270
-0.209644
-0.549899
-0.880264
-1.197595
-1.498871
-1.781217
-2.041935
-2.278530
-2.488734
-2.670525
-2.822150
-2.942122
-3.029183
-3.082138
-3.446224
-3.388002
-3.292219
-3.160153
-2.993178
-2.792928
-2.561336
-2.300629
-2.013307
-1.702121
-1.370047
-1.020258
-0.656086
-0.281002
0.101427
0.487565
0.873741
1.256281
1.631542
1.995941
2.345991
2.678329
2.989750
3.277236
3.537986
3.769447
3.969341
4.135690
4.266838
4.361474
4.418645
4.437769
4.418645
4.361474
4.266838
4.135690
3.969341
3.769447
3.537986
3.277236
2.989750
2.678329
2.345991
1.995941
1.631542
1.256281
0.873741
0.487565
0.101427
-0.281002
-0.656086
-1.020258
-1.370047
-1.702121
-2.013307
-2.300629
-2.561336
-2.792928
-2.993178
-3.160153
-3.292219
-3.388002
-3.446224
-3.848172
-3.784137
-3.678725
-3.533308
-3.349387
-3.128760
-2.873556
-2.586230
-2.269537
-1.926512
-1.560439
-1.174816
-0.773323
-0.359787
0.061851
0.487580
0.913346
1.335093
1.748802
2.150519
2.536397
2.902730
3.245983
3.562833
3.850197
4.105266
4.325532
4.508823
4.653321
4.757586
4.820571
4.841639
4.820571
4.757586
4.653321
4.508823
4.325532
4.105266
3.850197
3.562833
3.245983
2.902730
2.536397
2.150519
1.748802
1.335093
0.913346
0.487580
0.061851
-0.359787
-0.773323
-1.174816
-1.560439
-1.926512
-2.269537
-2.586230
-2.873556
-3.128760
-3.349387
-3.533308
-3.678725
-3.784137
-3.848172
-4.291860
-4.221408
-4.105368
-3.945214
-3.742588
-3.499469
-3.218202
-2.901492
-2.552379
-2.174211
-1.770607
-1.345429
-0.902738
-0.446759
0.018161
0.487592
0.957059
1.422087
1.878237
2.321148
2.746577
3.150435
3.528827
3.878093
4.194835
4.475962
4.718719
4.920712
5.079947
5.194840
5.264243
5.287458
5.264243
5.194840
5.079947
4.920712
4.718719
4.475962
4.194835
3.878093
3.528827
3.150435
2.746577
2.321148
1.878237
1.422087
0.957059
0.487592
0.018161
-0.446759
-0.902738
-1.345429
-1.770607
-2.174211
-2.552379
-2.901492
-3.218202
-3.499469
-3.742588
-3.945214
-4.105368
-4.221408
-4.291860
-4.781569
-4.704034
-4.576265
-4.399845
-4.176575
-3.908631
-3.598598
-3.249458
-2.864563
-2.447605
-2.002578
-1.533744
-1.045582
-0.542755
-0.030064
0.487602
1.005304
1.518101
2.021095
2.509475
2.978557
3.423833
3.841011
4.226054
4.575223
4.885113
5.152692
5.375329
5.550829
5.677454
5.753942
5.779525
5.753942
5.677454
5.550829
5.375329
5.152692
4.885113
4.575223
4.226054
3.841011
3.423833
2.978557
2.509475
2.021095
1.518101
1.005304
0.487602
-0.030064
-0.542755
-1.045582
-1.533744
-2.002578
-2.447605
-2.864563
-3.249458
-3.598598
-3.908631
-4.176575
-4.399845
-4.576265
-4.704034
-4.781569
-5.322021
-5.236671
-5.095957
-4.901587
-4.655534
-4.360193
-4.018413
-3.633482
-3.209098
-2.749331
-2.258591
-1.741575
-1.203230
-0.648703
-0.083290
0.487610
1.058545
1.624063
2.178756
2.717315
3.234575
3.725563
4.185546
4.610075
4.995031
5.336666
5.631639
5.877060
6.070511
6.210083
6.294389
6.322587
6.294389
6.210083
6.070511
5.877060
5.631639
5.336666
4.995031
4.610075
4.185546
3.725563
3.234575
2.717315
2.178756
1.624063
1.058545
0.487610
-0.083290
-0.648703
-1.203230
-1.741575
-2.258591
-2.749331
-3.209098
-3.633482
-4.018413
-4.360193
-4.655534
-4.901587
-5.095957
-5.236671
-5.322021
-5.918432
-5.824457
-5.669458
-5.455280
-5.184085
-4.858511
-4.481698
-4.057271
-3.589309
-3.082302
-2.541113
-1.970927
-1.377204
-0.765622
-0.142029
0.487616
1.117297
1.740994
2.352740
2.946676
3.517102
4.058535
4.565754
5.033859
5.458308
5.834974
6.160180
6.430743
6.644005
6.797864
6.890799
6.921882
6.890799
6.797864
6.644005
6.430743
6.160180
5.834974
5.458308
5.033859
4.565754
4.058535
3.517102
2.946676
2.352740
1.740994
1.117297
0.487616
-0.142029
-0.765622
-1.377204
-1.970927
-2.541113
-3.082302
-3.589309
-4.057271
-4.481698
-4.858511
-5.184085
-5.455280
-5.669458
-5.824457
-5.918432
-6.576554
-6.473062
-6.302301
-6.066265
-5.767327
-5.408391
-4.992921
-4.524912
-4.008862
-3.449727
-2.852870
-2.224014
-1.569182
-0.894642
-0.206848
0.487622
1.182127
1.870023
2.544726
3.199768
3.828862
4.425960
4.985305
5.501493
5.969523
6.384845
6.743412
7.041719
7.276842
7.446467
7.548923
7.583190
7.548923
7.446467
7.276842
7.041719
6.743412
6.384845
5.969523
5.501493
4.985305
4.425960
3.828862
3.199768
2.544726
1.870023
1.182127
0.487622
-0.206848
-0.894642
-1.569182
-2.224014
-2.852870
-3.449727
-4.008862
-4.524912
-4.992921
-5.408391
-5.767327
-6.066265
-6.302301
-6.473062
-6.576554
-7.302736
-7.188743
-7.000589
-6.740435
-6.410885
-6.015139
-5.557013
-5.040915
-4.471806
-3.855151
-3.196870
-2.503275
-1.781015
-1.037006
-0.278373
0.487626
1.253660
2.012395
2.756565
3.479033
4.172863
4.831383
5.448245
6.017490
6.533607
6.991584
7.386962
7.715883
7.975126
8.162149
8.275110
8.312891
8.275110
8.162149
7.975126
7.715883
7.386962
6.991584
6.533607
6.017490
5.448245
4.831383
4.172863
3.479033
2.756565
2.012395
1.253660
0.487626
-0.278373
-1.037006
-1.781015
-2.503275
-3.196870
-3.855151
-4.471806
-5.040915
-5.557013
-6.015139
-6.410885
-6.740435
-7.000589
-7.188743
-7.302736
-8.103982
-7.978403
-7.771059
-7.484294
-7.120968
-6.684607
-6.179416
-5.610258
-4.982605
-4.302485
-3.576430
-2.811405
-2.014746
-1.194088
-0.357292
0.487630
1.332586
2.169483
2.990301
3.787165
4.552423
5.278714
5.959038
6.586826
7.156002
7.661042
8.097037
8.459736
8.745595
8.951814
9.076366
9.118023
9.076366
8.951814
8.745595
8.459736
8.097037
7.661042
7.156002
6.586826
5.959038
5.278714
4.552423
3.787165
2.990301
2.169483
1.332586
0.487630
-0.357292
-1.194088
-2.014746
-2.811405
-3.576430
-4.302485
-4.982605
-5.610258
-6.179416
-6.684607
-7.120968
-7.484294
-7.771059
-7.978403
-8.103982
-8.988023
-8.849659
-8.621142
-8.305017
-7.904426
-7.423252
-6.866134
-6.238433
-5.546185
-4.796044
-3.995212
-3.151376
-2.272631
-1.367403
-0.444367
0.487633
1.419667
2.342803
3.248189
4.127137
4.971204
5.772269
6.522614
7.214993
7.842710
8.399678
8.880486
9.280455
9.595678
9.823076
9.960419
10.006352
9.960419
9.823076
9.595678
9.280455
8.880486
8.399678
7.842710
7.214993
6.522614
5.772269
4.971204
4.127137
3.248189
2.342803
1.419667
0.487633
-0.444367
-1.367403
-2.272631
-3.151376
-3.995212
-4.796044
-5.546185
-6.238433
-6.866134
-7.423252
-7.904426
-8.305017
-8.621142
-8.849659
-8.988023
-9.963384
-9.810917
-9.559040
-9.210522
-8.768815
-8.238199
-7.623790
-6.931499
-6.167986
-5.340588
-4.457254
-3.526467
-2.557156
-1.558622
-0.540438
0.487636
1.515743
2.534025
3.532716
4.502228
5.433245
6.316809
7.144407
7.908051
8.600356
9.214616
9.744867
10.185954
10.533577
10.784342
10.935795
10.986447
10.935795
10.784342
10.533577
10.185954
9.744867
9.214616
8.600356
7.908051
7.144407
6.316809
5.433245
4.502228
3.532716
2.534025
1.515743
0.487636
-0.540438
-1.558622
-2.557156
-3.526467
-4.457254
-5.340588
-6.167986
-6.931499
-7.623790
-8.238199
-8.768815
-9.210522
-9.559040
-9.810917
-9.963384
-11.039474
-10.871448
-10.593799
-10.209541
-9.722473
-9.137310
-8.459693
-7.696142
-6.854002
-5.941370
-4.967015
-3.940295
-2.871067
-1.769590
-0.646431
0.487638
1.621740
2.744996
3.846628
4.916056
5.943003
6.917586
7.830416
8.672684
9.436249
10.113717
10.698518
11.184970
11.568337
11.844884
12.011905
12.067763
12.011905
11.844884
11.568337
11.184970
10.698518
10.113717
9.436249
8.672684
7.830416
6.917586
5.943003
4.916056
3.846628
2.744996
1.621740
0.487638
-0.646431
-1.769590
-2.871067
-3.940295
-4.967015
-5.941370
-6.854002
-7.696142
-8.459693
-9.137310
-9.722473
-10.209541
-10.593799
-10.871448
-11.039474
-12.226675
-12.041481
-11.735398
-11.311713
-10.774600
-10.129258
-9.381906
-8.539737
-7.610854
-6.604187
-5.529411
-4.396854
-3.217390
-2.002342
-0.763369
0.487639
1.738681
2.977750
4.192951
5.372613
6.505394
7.580395
8.587257
9.516268
10.358450
11.105654
11.750637
12.287138
12.709942
13.014930
13.199127
13.260729
13.199127
13.014930
12.709942
12.287138
11.750637
11.105654
10.358450
9.516268
8.587257
7.580395
6.505394
5.372613
4.192951
2.977750
1.738681
0.487639
-0.763369
-2.002342
-3.217390
-4.396854
-5.529411
-6.604187
-7.610854
-8.539737
-9.381906
-10.129258
-10.774600
-11.311713
-11.735398
-12.041481
-12.226675
-13.536438
-13.332304
-12.994853
-12.527669
-11.935345
-11.223610
-10.399324
-9.470422
-8.445839
-7.335429
-6.149868
-4.900547
-3.599467
-2.259122
-0.892380
0.487641
1.867694
3.234531
4.575027
5.876303
7.125845
8.311630
9.422233
10.446940
11.375856
12.199994
12.911373
13.503091
13.969401
14.305769
14.508914
14.576853
14.508914
14.305769
13.969401
13.503091
12.911373
12.199994
11.375856
10.446940
9.422233
8.311630
7.125845
5.876303
4.575027
3.234531
1.867694
0.487641
-0.892380
-2.259122
-3.599467
-4.900547
-6.149868
-7.335429
-8.445839
-9.470422
-10.399324
-11.223610
-11.935345
-12.527669
-12.994853
-13.332304
-13.536438
-14.981396
-14.756368
-14.384311
-13.869138
-13.215903
-12.430923
-11.521763
-10.497173
-9.367013
-8.142153
-6.834369
-5.456231
-4.020982
-2.542408
-1.034708
0.487642
2.010024
3.517818
4.996542
6.431984
7.810340
9.118344
10.343396
11.473680
12.498281
13.407295
14.191922
14.844557
15.358865
15.729850
15.953900
16.028830
15.953900
15.729850
15.358865
14.844557
14.191922
13.407295
12.498281
11.473680
10.343396
9.118344
7.810340
6.431984
4.996542
3.517818
2.010024
0.487642
-1.034708
-2.542408
-4.020982
-5.456231
-6.834369
-8.142153
-9.367013
-10.497173
-11.521763
-12.430923
-13.215903
-13.869138
-14.384311
-14.756368
-14.981396
-16.575487
-16.327408
-15.917173
-15.349059
-14.628628
-13.762844
-12.760049
-11.629896
-10.383263
-9.032138
-7.589517
-6.069269
-4.486003
-2.854933
-1.191726
0.487643
2.167043
3.830343
5.461561
7.045017
8.565482
10.008320
11.359632
12.606388
13.736552
14.739202
15.604637
16.324476
16.891735
17.300911
17.548023
17.630665
17.548023
17.300911
16.891735
16.324476
15.604637
14.739202
13.736552
12.606388
11.359632
10.008320
8.565482
7.045017
5.461561
3.830343
2.167043
0.487643
-1.191726
-2.854933
-4.486003
-6.069269
-7.589517
-9.032138
-10.383263
-11.629896
-12.760049
-13.762844
-14.628628
-15.349059
-15.917173
-16.327408
-16.575487
-18.334089
-18.060581
-17.608229
-16.981709
-16.187147
-15.232219
-14.126126
-12.879517
-11.504389
-10.013970
-8.422598
-6.745572
-4.999014
-3.199710
-1.364948
0.487644
2.340267
4.175120
5.974570
7.721315
9.398554
10.990141
12.480744
13.855992
15.102612
16.208561
17.163145
17.957123
18.582800
19.034107
19.306662
19.397812
19.306662
19.034107
18.582800
17.957123
17.163145
16.208561
15.102612
13.855992
12.480744
10.990141
9.398554
7.721315
5.974570
4.175120
2.340267
0.487644
-1.364948
-3.199710
-4.999014
-6.745572
-8.422598
-10.013970
-11.504389
-12.879517
-14.126126
-15.232219
-16.187147
-16.981709
-17.608229
-18.060581
-18.334089
-20.274166
-19.972605
-19.473787
-18.782835
-17.906492
-16.853222
-15.633172
-14.258089
-12.741207
-11.097120
-9.341646
-7.491665
-5.564965
-3.580066
-1.556046
0.487644
2.531366
4.555476
6.540517
8.467402
10.317593
12.073278
13.717546
15.234547
16.609640
17.829548
18.882479
19.758245
20.448368
20.946156
21.246778
21.347313
21.246778
20.946156
20.448368
19.758245
18.882479
17.829548
16.609640
15.234547
13.717546
12.073278
10.317593
8.467402
6.540517
4.555476
2.531366
0.487644
-1.556046
-3.580066
-5.564965
-7.491665
-9.341646
-11.097120
-12.741207
-14.258089
-15.633172
-16.853222
-17.906492
-18.782835
-19.473787
-19.972605
-20.274166
-22.414431
-22.081921
-21.531845
-20.769812
-19.803249
-18.641489
-17.295723
-15.778910
-14.105647
-12.292037
-10.355527
-8.314744
-6.189313
-3.999670
-1.766863
0.487645
2.742183
4.975079
7.164863
9.290475
11.331463
13.268180
15.081969
16.755348
18.272171
19.617798
20.779224
21.745220
22.506437
23.055500
23.387087
23.497976
23.387087
23.055500
22.506437
21.745220
20.779224
19.617798
18.272171
16.755348
15.081969
13.268180
11.331463
9.290475
7.164863
4.975079
2.742183
0.487645
-1.766863
-3.999670
-6.189313
-8.314744
-10.355527
-12.292037
-14.105647
-15.778910
-17.295723
-18.641489
-19.803249
-20.769812
-21.531845
-22.081921
-22.414431
-24.775528
-24.408876
-23.802254
-22.961805
-21.895716
-20.614271
-19.129818
-17.456650
-15.610870
-13.610245
-11.474021
-9.222749
-6.878083
-4.462569
-1.999432
0.487645
2.974752
5.437975
7.853628
10.198472
12.449945
14.586372
16.587173
18.433065
20.106245
21.590561
22.871677
23.937212
24.776857
25.382488
25.748234
25.870546
25.748234
25.382488
24.776857
23.937212
22.871677
21.590561
20.106245
18.433065
16.587173
14.586372
12.449945
10.198472
7.853628
5.437975
2.974752