VARIABLES="X","Y","Z","p","rho","u","v","w"
ZONE T="Element0"
Nodes=8494, Elements=4108, ZONETYPE=FEBRICK
DATAPACKING=BLOCK
VARLOCATION = ([4,5,6,7,8] = CELLCENTERED)
-9.512275
-10.014353
-10.541720
-11.095648
-11.677470
-12.288589
-12.930479
-13.604685
-14.312834
-15.056630
-15.837869
-16.658430
-17.520294
-18.425537
-19.376341
-20.374994
-21.423908
-22.525610
-23.682751
-24.898125
-26.174658
-27.515427
-28.923662
-30.402761
-31.956285
-33.587978
-35.301777
-37.101807
-38.992409
-40.978138
-43.063782
-45.254368
-47.555168
-49.971737
-52.509892
-55.175755
-57.975746
-60.916615
-64.005455
-67.249702
-70.657181
-74.236099
-77.995079
-81.943192
-86.089951
-90.445335
-95.019859
-99.824539
-104.870949
-110.171265
-115.738251
-121.585327
-127.726585
-134.176819
-140.951584
-148.067215
-148.067215
-9.512275
-10.014353
-10.541720
-11.095648
-11.677470
-12.288589
-12.930479
-13.604685
-14.312834
-15.056630
-15.837869
-16.658430
-17.520294
-18.425537
-19.376341
-20.374994
-21.423908
-22.525610
-23.682751
-24.898125
-26.174658
-27.515427
-28.923662
-30.402761
-31.956285
-33.587978
-35.301777
-37.101807
-38.992409
-40.978138
-43.063782
-45.254368
-47.555168
-49.971737
-52.509892
-55.175755
-57.975746
-60.916615
-64.005455
-67.249702
-70.657181
-74.236099
-77.995079
-81.943192
-86.089951
-90.445335
-95.019859
-99.824539
-104.870949
-110.171265
-115.738251
-121.585327
-127.726585
-134.176819
-140.951584
6.184038
5.969523
5.741824
5.501493
5.249116
4.985305
4.710698
4.425960
4.131778
3.828862
3.517943
3.199768
2.875102
2.544726
6.469890
6.244629
6.005521
5.753147
5.488120
5.211082
4.922705
4.623686
4.314747
3.996633
3.670111
3.335966
2.995003
2.648041
7.197354
6.991584
6.770155
6.533607
6.282516
6.017490
5.739175
5.448245
5.145403
4.831383
4.506942
4.172863
3.829952
3.479033
3.120950
2.756565
2.386751
2.012395
1.634397
7.534164
7.318085
7.085559
6.837154
6.573474
6.295160
6.002887
5.697363
5.379328
5.049550
4.708826
4.357978
3.997851
3.629312
3.253247
2.870560
2.482170
2.089009
1.692019
1.292153
7.887952
7.661042
7.416861
7.156002
6.879099
6.586826
6.279891
5.959038
5.625043
5.278714
4.920887
4.552423
4.174213
3.787165
3.392211
2.990301
2.582398
2.169483
1.752546
1.332586
8.259570
8.021284
7.764859
7.490918
7.200127
6.893191
6.570856
6.233901
5.883142
5.519427
5.143633
4.756668
4.359463
3.952974
3.538179
3.116076
2.687678
2.254014
1.816123
1.375057
0.931872
0.487632
0.043400
-0.399759
-0.840783
-1.278616
-1.712208
-2.140520
-2.562526
-2.977213
-3.383588
-3.780675
-4.167521
-4.543200
-4.906807
-5.257470
-5.594347
8.649913
8.399678
8.130392
7.842710
7.537330
7.214993
6.876482
6.522614
6.154246
5.772269
5.377604
4.971204
4.554047
4.127137
3.691502
3.248189
2.798262
2.342803
1.882903
1.419667
0.954205
0.487633
0.021070
-0.444367
-0.907561
-1.367403
-1.822790
-2.272631
-2.715847
-3.151376
-3.578172
-3.995212
-4.401494
-4.796044
-5.177913
-5.546185
-5.899976
-9.500151
-9.463721
-9.403083
-9.318480
-9.210204
-9.078570
-8.923922
-8.746646
-8.547178
-8.326002
9.059921
8.797136
8.514341
8.212226
7.891522
7.553008
7.197505
6.825872
6.439009
6.037850
5.623363
5.196548
4.758434
4.310075
3.852549
3.386957
2.914418
2.436065
1.953048
1.466525
0.977663
0.487634
-0.002385
-0.491222
-0.977703
-1.460663
-1.938944
-2.411398
-2.876894
-3.334313
-3.782560
-4.220557
-4.647254
-5.061626
-5.462679
-5.849447
-6.221003
-6.576452
-6.914941
-7.235654
-7.537821
-7.820714
-8.083652
-8.326002
-8.547178
-8.746646
-8.923922
-9.078570
-9.210204
-9.318480
-9.403083
-9.463721
-9.500151
-10.001624
-9.963384
-9.899730
-9.810917
-9.697245
-9.559040
-9.396664
-9.210522
-9.001069
-8.768815
9.490584
9.214616
8.917632
8.600356
8.263556
7.908051
7.534699
7.144407
6.738116
6.316809
5.881502
5.433245
4.973117
4.502228
4.021709
3.532716
3.036424
2.534025
2.026726
1.515743
1.002302
0.487636
-0.027022
-0.540438
-1.051379
-1.558622
-2.060949
-2.557156
-3.046053
-3.526467
-3.997244
-4.457254
-4.905395
-5.340588
-5.761789
-6.167986
-6.558202
-6.931499
-7.286980
-7.623790
-7.941117
-8.238199
-8.514320
-8.768815
-9.001069
-9.210522
-9.396664
-9.559040
-9.697245
-9.810917
-9.899730
-9.963384
-10.001624
-10.528357
-10.488213
-10.421393
-10.328156
-10.208817
-10.063711
-9.893218
-9.697762
-9.477822
-9.233932
9.942940
9.653124
9.341237
9.008036
8.654330
8.280976
7.888879
7.478986
7.052289
6.609819
6.152643
5.681863
5.198614
4.704060
4.199389
3.685817
3.164576
2.636920
2.104115
1.567439
1.028182
0.487637
-0.052900
-0.592132
-1.128766
-1.661515
-2.189100
-2.710256
-3.223733
-3.728298
-4.222741
-4.705874
-5.176538
-5.633601
-6.075965
-6.502569
-6.912385
-7.304430
-7.677759
-8.031475
-8.364727
-8.676712
-8.966681
-9.233932
-9.477822
-9.697762
-9.893218
-10.063711
-10.208817
-10.328156
-10.421393
-10.488213
-10.528357
-11.081617
-11.039474
-10.969329
-10.871448
-10.746152
-10.593799
-10.414780
-10.209541
-9.978586
-9.722473
10.418077
10.113717
9.786176
9.436249
9.064784
8.672684
8.260896
7.830416
7.382285
6.917586
6.437439
5.943003
5.435467
4.916056
4.386018
3.846628
3.299182
2.744996
2.185401
1.621740
1.055366
0.487638
-0.080082
-0.646431
-1.210051
-1.769590
-2.323705
-2.871067
-3.410362
-3.940295
-4.459596
-4.967015
-5.461336
-5.941370
-6.405965
-6.854002
-7.284407
-7.696142
-8.088219
-8.459693
-8.809670
-9.137310
-9.441823
-9.722473
-9.978586
-10.209541
-10.414780
-10.593799
-10.746152
-10.871448
-10.969329
-11.039474
-11.081617
-11.662739
-11.618497
-11.544858
-11.442097
-11.310548
-11.150580
-10.962606
-10.747093
-10.504568
-10.235618
10.917143
10.597505
10.253521
9.886025
9.495909
9.084117
8.651647
8.199543
7.728899
7.240851
6.736578
6.217293
5.684248
5.138728
4.582045
4.015537
3.440566
2.858515
2.270780
1.678774
1.083918
0.487639
-0.108632
-0.703464
-1.295429
-1.883107
-2.465088
-3.039976
-3.606389
-4.162968
-4.708378
-5.241308
-5.760477
-6.264639
-6.752583
-7.223135
-7.675163
-8.107580
-8.519348
-8.909475
-9.277021
-9.621103
-9.940892
-10.235618
-10.504568
-10.747093
-10.962606
-11.150580
-11.310548
-11.442097
-11.544858
-11.618497
-11.662739
-12.273123
-12.226675
-12.149366
-12.041481
-11.903363
-11.735398
-11.538019
-11.311713
-11.057034
-10.774600
11.441338
11.105654
10.744399
10.358450
9.948742
9.516268
9.062074
8.587257
8.092967
7.580395
7.050778
6.505394
5.945557
5.372613
4.787942
4.192951
3.589070
2.977750
2.360459
1.738681
1.113908
0.487639
-0.138621
-0.763369
-1.385107
-2.002342
-2.613591
-3.217390
-3.812287
-4.396854
-4.969687
-5.529411
-6.074681
-6.604187
-7.116654
-7.610854
-8.085595
-8.539737
-8.972187
-9.381906
-9.767905
-10.129258
-10.465093
-10.774600
-11.057034
-11.311713
-11.538019
-11.735398
-11.903363
-12.041481
-12.149366
-12.226675
-12.273123
-12.914239
-12.865476
-12.784313
-12.671044
-12.526027
-12.349663
-12.142404
-11.904762
-11.637319
-11.340721
11.991927
11.639388
11.259993
10.854662
10.424376
9.970178
9.493166
8.994493
8.475366
7.937035
7.380800
6.808002
6.220022
5.618274
5.004207
4.379298
3.745050
3.102988
2.454653
1.801603
1.145407
0.487640
-0.170119
-0.826290
-1.479300
-2.127579
-2.769572
-3.403737
-4.028552
-4.642516
-5.244154
-5.832022
-6.404706
-6.960830
-7.499058
-8.018095
-8.516693
-8.993652
-9.447827
-9.878123
-10.283505
-10.662998
-11.015687
-11.340721
-11.637319
-11.904762
-12.142404
-12.349663
-12.526027
-12.671044
-12.784313
-12.865476
-12.914239
-13.587634
-13.536438
-13.451227
-13.332304
-13.180040
-12.994853
-12.777217
-12.527669
-12.246819
-11.935345
-11.594001
-11.223610
-10.825065
-10.399324
12.570236
12.199994
11.801546
11.375856
10.923957
10.446940
9.945963
9.422233
8.877017
8.311630
7.727437
7.125845
6.508305
5.876303
5.231359
4.575027
3.908884
3.234531
2.553589
1.867694
1.178493
0.487641
-0.203203
-0.892380
-1.578235
-2.259122
-2.933405
-3.599467
-4.255706
-4.900547
-5.532440
-6.149868
-6.751346
-7.335429
-7.900713
-8.445839
-8.969495
-9.470422
-9.947414
-10.399324
-10.825065
-11.223610
-11.594001
-11.935345
-12.246819
-12.527669
-12.777217
-12.994853
-13.180040
-13.332304
-13.451227
-13.536438
-13.587634
-14.294930
-14.241179
-14.151715
-14.026854
-13.866978
-13.672524
-13.443989
-13.181935
-12.887002
-12.559904
-12.201430
-11.812446
-11.393888
-10.946765
13.177660
12.788824
12.370362
11.923289
11.448688
10.947705
10.421555
9.871506
9.298888
8.705084
8.091525
7.459690
6.811101
6.147322
5.469948
4.780610
4.080966
3.372697
2.657506
1.937112
1.213244
0.487641
-0.237953
-0.961797
-1.682151
-2.397287
-3.105487
-3.805050
-4.494295
-5.171567
-5.835239
-6.483715
-7.115438
-7.728888
-8.322590
-8.895118
-9.445093
-9.971193
-10.472152
-10.946765
-11.393888
-11.812446
-12.201430
-12.559904
-12.887002
-13.181935
-13.443989
-13.672524
-13.866978
-14.026854
-14.151715
-14.241179
-14.294930
-15.037831
-14.981396
-14.887467
-14.756368
-14.588497
-14.384311
-14.144327
-13.869138
-13.559413
-13.215903
-12.839437
-12.430923
-11.991346
-11.521763
13.815661
13.407295
12.967813
12.498281
11.999834
11.473680
10.921088
10.343396
9.741998
9.118344
8.473941
7.810340
7.129141
6.431984
5.720547
4.996542
4.261710
3.517818
2.766654
2.010024
1.249744
0.487642
-0.274452
-1.034708
-1.791299
-2.542408
-3.286232
-4.020982
-4.744895
-5.456231
-6.153281
-6.834369
-7.497858
-8.142153
-8.765704
-9.367013
-9.944633
-10.497173
-11.023306
-11.521763
-11.991346
-12.430923
-12.839437
-13.215903
-13.559413
-13.869138
-14.144327
-14.384311
-14.588497
-14.756368
-14.887467
-14.981396
-15.037831
-15.818129
-15.758874
-15.660254
-15.522604
-15.346335
-15.131927
-14.879918
-14.590933
-14.265672
-13.904924
-13.509562
-13.080535
-12.618879
-12.125706
15.566350
15.241421
14.880939
14.485779
14.056899
13.595340
13.102217
12.578725
12.026130
11.445767
10.839040
10.207412
9.552407
8.875607
8.178641
7.463190
6.730976
5.983761
5.223344
4.451553
3.670245
2.881297
2.086606
1.288082
0.487642
-0.312789
-1.111289
-1.905941
-2.694834
-3.476074
-4.247785
-5.008111
-5.755225
-6.487333
-7.202673
-7.899528
-8.576221
-9.231124
-9.862663
-10.469318
-11.049631
-11.602203
-12.125706
-12.618879
-13.080535
-13.509562
-13.904924
-14.265672
-14.590933
-14.879918
-15.131927
-15.346335
-15.522604
-15.660254
-15.758874
-15.818129
-16.637703
-16.575487
-16.471941
-16.327408
-16.142321
-15.917173
-15.652536
-15.349059
-15.007481
-14.628628
-14.213415
-13.762844
-13.277999
-12.760049
16.324476
15.983226
15.604637
15.189628
14.739202
14.254453
13.736552
13.186754
12.606388
11.996857
11.359632
10.696253
10.008320
9.297492
8.565482
7.814054
7.045017
6.260223
5.461561
4.650951
3.830343
3.001710
2.167043
1.328349
0.487643
-0.353055
-1.191726
-2.026353
-2.854933
-3.675473
-4.486003
-5.284575
-6.069269
-6.838199
-7.589517
-8.321417
-9.032138
-9.719972
-10.383263
-11.020415
-11.629896
-12.210240
-12.760049
-13.277999
-13.762844
-14.213415
-14.628628
-15.007481
-15.349059
-15.652536
-15.917173
-16.142321
-16.327408
-16.471941
-16.575487
-16.637703
-17.498529
-17.433203
-17.324482
-17.172722
-16.978371
-16.741945
-16.464043
-16.145346
-15.786628
-15.388759
-14.952698
-14.479496
-13.970295
-13.426320
17.120760
16.762369
16.364761
15.928903
15.455847
14.946740
14.402815
13.825387
13.215853
12.575684
11.906427
11.209700
10.487180
9.740611
8.971792
8.182577
7.374866
6.550601
5.711769
4.860386
3.998500
3.128184
2.251529
1.370643
0.487643
-0.395349
-1.276211
-2.152827
-3.023090
-3.884908
-4.736212
-5.574955
-6.399119
-7.206726
-7.995832
-8.764541
-9.511003
-10.233424
-10.930065
-11.599250
-12.239369
-12.848882
-13.426320
-13.970295
-14.479496
-14.952698
-15.388759
-15.786628
-16.145346
-16.464043
-16.741945
-16.978371
-17.172722
-17.324482
-17.433203
-17.498529
-18.402681
-18.334089
-18.219934
-18.060581
-17.856499
-17.608229
-17.316393
-16.981709
-16.604990
-16.187147
-15.729188
-15.232219
-14.697435
-14.126126
17.957123
17.580729
17.163145
16.705387
16.208561
15.673872
15.102612
14.496163
13.855992
13.183644
12.480744
11.748988
10.990141
10.206033
9.398554
8.569650
7.721315
6.855595
5.974570
5.080362
4.175120
3.261023
2.340267
1.415066
0.487644
-0.439771
-1.364948
-2.285666
-3.199710
-4.104885
-4.999014
-5.879950
-6.745572
-7.593801
-8.422598
-9.229968
-10.013970
-10.772719
-11.504389
-12.207218
-12.879517
-13.519667
-14.126126
-14.697435
-15.232219
-15.729188
-16.187147
-16.604990
-16.981709
-17.316393
-17.608229
-17.856499
-18.060581
-18.219934
-18.334089
-18.402681
-19.352341
-19.280317
-19.160452
-18.993126
-18.778824
-18.518112
-18.211641
-17.860167
-17.464539
-17.025717
-16.544760
-16.022825
-15.461172
-14.861153
19.186666
18.835579
18.440273
18.001711
17.520952
16.999161
16.437601
15.837630
15.200701
14.528350
13.822204
13.083966
12.315419
11.518416
10.694880
9.846794
8.976203
8.085202
7.175938
6.250598
5.311409
4.360630
3.400548
2.433471
1.461724
0.487644
-0.486429
-1.458152
-2.425190
-3.385220
-4.335933
-5.275043
-6.200294
-7.109462
-8.000359
-8.870842
-9.718820
-10.542252
-11.339157
-12.107618
-12.845786
-13.551884
-14.224212
-14.861153
-15.461172
-16.022825
-16.544760
-17.025717
-17.464539
-17.860167
-18.211641
-18.518112
-18.778824
-18.993126
-19.160452
-19.280317
-19.352341
-20.349792
-20.274166
-20.148306
-19.972605
-19.747568
-19.473787
-19.151947
-18.782835
-18.367350
-17.906492
-17.401377
-16.853222
-16.263346
-15.633172
20.126974
19.758245
19.343079
18.882479
18.377562
17.829548
17.239765
16.609640
15.940695
15.234547
14.492900
13.717546
12.910357
12.073278
11.208328
10.317593
9.403216
8.467402
7.512403
6.540517
5.554084
4.555476
3.547095
2.531366
1.510731
0.487644
-0.535435
-1.556046
-2.571738
-3.580066
-4.578609
-5.564965
-6.536762
-7.491665
-8.427376
-9.341646
-10.232275
-11.097120
-11.934103
-12.741207
-13.516491
-14.258089
-14.964216
-15.633172
-16.263346
-16.853222
-17.401377
-17.906492
-18.367350
-18.782835
-19.151947
-19.473787
-19.747568
-19.972605
-20.148306
-20.274166
-20.349792
-21.397444
-21.318031
-21.185873
-21.001375
-20.765066
-20.477558
-20.139574
-19.751938
-19.315594
-18.831593
-18.301105
-17.725409
-17.105890
-16.444044
21.114603
20.727348
20.291321
19.807575
19.277283
18.701727
18.082302
17.420504
16.717930
15.976283
15.197351
14.383013
13.535236
12.656065
11.747618
10.812085
9.851721
8.868837
7.865802
6.845028
5.808972
4.760128
3.701017
2.634187
1.562204
0.487644
-0.586907
-1.658867
-2.725660
-3.784719
-4.833498
-5.869477
-6.890163
-7.893103
-8.875885
-9.836143
-10.771570
-11.679914
-12.558990
-13.406682
-14.220950
-14.999835
-15.741462
-16.444044
-17.105890
-17.725409
-18.301105
-18.831593
-19.315594
-19.751938
-20.139574
-20.477558
-20.765066
-21.001375
-21.185873
-21.318031
-21.397444
-22.497818
-22.414431
-22.275658
-22.081921
-21.833769
-21.531845
-21.176903
-20.769812
-20.311558
-19.803249
-19.246113
-18.641489
-17.990837
-17.295723
22.151934
21.745220
21.287281
20.779224
20.222281
19.617798
18.967237
18.272171
17.534281
16.755348
15.937252
15.081969
14.191563
13.268180
12.314047
11.331463
10.322796
9.290475
8.236985
7.164863
6.076688
4.975079
3.862685
2.742183
1.616267
0.487645
-0.640970
-1.766863
-2.887328
-3.999670
-5.101215
-6.189313
-7.261349
-8.314744
-9.346964
-10.355527
-11.338005
-12.292037
-13.215324
-14.105647
-14.960861
-15.778910
-16.557821
-17.295723
-17.990837
-18.641489
-19.246113
-19.803249
-20.311558
-20.769812
-21.176903
-21.531845
-21.833769
-22.081921
-22.275658
-22.414431
-22.497818
-23.653566
-23.566004
-23.420282
-23.216843
-22.956253
-22.639187
-22.266436
-21.838909
-21.357645
-20.823803
-20.238676
-19.603670
-18.920317
-18.190262
23.241468
22.814316
22.333363
21.799772
21.214836
20.579969
19.896708
19.166700
18.391714
17.573618
16.714388
15.816100
14.880918
13.911099
12.908981
11.876978
10.817577
9.733331
8.626847
7.500793
6.357875
5.200846
4.032489
2.855613
1.673051
0.487645
-0.697753
-1.880294
-3.057132
-4.225439
-5.382404
-6.525246
-7.651215
-8.757604
-9.841750
-10.901048
-11.932946
-12.934963
-13.904688
-14.839787
-15.738008
-16.597191
-17.415266
-18.190262
-18.920317
-19.603670
-20.238676
-20.823803
-21.357645
-21.838909
-22.266436
-22.639187
-22.956253
-23.216843
-23.420282
-23.566004
-23.653566
-24.867476
-24.775528
-24.622509
-24.408876
-24.135223
-23.802254
-23.410795
-22.961805
-22.456371
-21.895716
-21.281187
-20.614271
-19.896570
-19.129818
24.385832
23.937212
23.432087
22.871677
22.257339
21.590561
20.872950
20.106245
19.292294
18.433065
17.530634
16.587173
15.604964
14.586372
13.533854
12.449945
11.337258
10.198472
9.036329
7.853628
6.653214
5.437975
4.210838
2.974752
1.732692
0.487645
-0.757394
-1.999432
-3.235481
-4.462569
-5.677743
-6.878083
-8.060699
-9.222749
-10.361436
-11.474021
-12.557826
-13.610245
-14.628743
-15.610870
-16.554262
-17.456650
-18.315857
-19.129818
-19.896570
-20.614271
-21.281187
-21.895716
-22.456371
-22.961805
-23.410795
-23.802254
-24.135223
-24.408876
-24.622509
-24.775528
-24.867476
-26.142471
-26.045918
-25.885235
-25.660896
-25.373522
-25.023848
-24.612743
-24.141209
-23.610390
-23.021566
-22.376162
-21.675726
-20.921951
-20.116653
25.587780
25.116613
24.586100
23.997522
23.352304
22.652006
21.898319
21.093067
20.238194
19.335762
18.387953
17.397049
16.365444
15.295626
14.190171
13.051744
11.883090
10.687020
9.466417
8.224218
6.963413
5.687037
4.398161
3.099886
1.795335
0.487645
-0.820037
-2.124566
-3.422805
-4.711631
-5.987945
-7.248675
-8.490790
-9.711302
-10.907272
-12.075827
-13.214151
-14.319507
-15.389234
-16.420757
-17.411592
-18.359358
-19.261768
-20.116653
-20.921951
-21.675726
-22.376162
-23.021566
-23.610390
-24.141209
-24.612743
-25.023848
-25.373522
-25.660896
-25.885235
-26.045918
-26.142471
-27.481627
-27.380236
-27.211500
-26.975920
-26.674131
-26.306913
-25.875174
-25.379961
-24.822479
-24.204073
-23.526234
-22.790596
-21.998932
-21.153147
26.850212
26.355364
25.798183
25.180021
24.502367
23.766865
22.975286
22.129549
21.231691
20.283884
19.288412
18.247679
17.164194
16.040569
14.879516
13.683827
12.456388
11.200152
9.918147
8.613457
7.289223
5.948633
4.594912
3.231317
1.861130
0.487646
-0.885831
-2.255997
-3.619556
-4.973228
-6.313756
-7.637917
-8.942524
-10.224439
-11.480577
-12.707916
-13.903502
-15.064460
-16.187992
-17.271397
-18.312065
-19.307491
-20.255280
-21.153147
-21.998932
-22.790596
-23.526234
-24.204073
-24.822479
-25.379961
-25.875174
-26.306913
-26.674131
-26.975920
-27.211500
-27.380236
-27.481627
-28.888168
-28.781694
-28.604506
-28.357113
-28.040190
-27.654545
-27.201128
-26.681047
-26.095560
-25.446083
-24.734179
-23.961565
-23.130104
-22.241796
28.176170
27.656448
27.071260
26.422022
25.710302
24.937822
24.106447
23.218185
22.275183
21.279715
20.234184
19.141113
18.003136
16.823000
15.603547
14.347717
13.058535
11.739106
10.392608
9.022282
7.631427
6.223391
4.801562
3.369361
1.930235
0.487646
-0.954937
-2.394041
-3.826207
-5.247987
-6.655962
-8.046744
-9.416988
-10.763396
-12.082729
-13.371813
-14.627543
-15.846899
-17.026945
-18.164843
-19.257849
-20.303335
-21.298784
-22.241796
-23.130104
-23.961565
-24.734179
-25.446083
-26.095560
-26.681047
-27.201128
-27.654545
-28.040190
-28.357113
-28.604506
-28.781694
-28.888168
-30.365484
-30.253674
-30.067604
-29.807808
-29.474987
-29.069986
-28.593805
-28.047604
-27.432703
-26.750589
-26.002907
-25.191458
-24.318197
-23.385227
-22.394796
29.568850
29.023003
28.408398
27.726521
26.979021
26.167702
25.294527
24.361603
23.371181
22.325655
21.227547
20.079502
18.884295
17.644800
16.364012
15.045012
13.690981
12.305179
10.890944
9.451679
7.990851
6.511975
5.018611
3.514352
2.002818
0.487646
-1.027519
-2.539032
-4.043256
-5.536572
-7.015388
-8.476144
-9.915327
-11.329474
-12.715182
-14.069116
-15.388017
-16.668711
-17.908113
-19.103245
-20.251225
-21.349289
-22.394796
-23.385227
-24.318197
-25.191458
-26.002907
-26.750589
-27.432703
-28.047604
-28.593805
-29.069986
-29.474987
-29.807808
-30.067604
-30.253674
-30.365484
-31.917139
-31.799723
-31.604324
-31.331501
-30.981981
-30.556650
-30.056559
-29.482922
-28.837128
-28.120737
-27.335476
-26.483236
-25.566072
-24.586193
-23.545959
31.031609
30.458321
29.812819
29.096661
28.311579
27.459469
26.542389
25.562555
24.522331
23.424227
22.270893
21.065111
19.809790
18.507954
17.162743
15.777395
14.355251
12.899736
11.414354
9.902682
8.368361
6.815080
5.246582
3.666639
2.079053
0.487646
-1.103754
-2.691319
-4.271227
-5.839679
-7.392899
-8.927151
-10.438743
-11.924037
-13.379458
-14.801506
-16.186756
-17.531874
-18.833622
-20.088865
-21.294584
-22.447874
-23.545959
-24.586193
-25.566072
-26.483236
-27.335476
-28.120737
-28.837128
-29.482922
-30.056559
-30.556650
-30.981981
-31.331501
-31.604324
-31.799723
-31.917139
-33.546867
-33.423565
-33.218372
-32.931862
-32.564804
-32.118122
-31.592916
-30.990463
-30.312222
-29.559828
-28.735096
-27.840015
-26.876739
-25.847589
-24.755047
33.092773
32.567966
31.965860
31.287905
30.535742
29.711187
28.816233
27.853041
26.823936
25.731401
24.578075
23.366739
22.100315
20.781855
19.414539
18.001663
16.546631
15.052947
13.524210
11.964103
10.376380
8.764865
7.133437
5.486023
3.826588
2.159124
0.487646
-1.183825
-2.851268
-4.510670
-6.158037
-7.789406
-9.400851
-10.988495
-12.548516
-14.077161
-15.570749
-17.025686
-18.438469
-19.805698
-21.124083
-22.390446
-23.601738
-24.755047
-25.847589
-26.876739
-27.840015
-28.735096
-29.559828
-30.312222
-30.990463
-31.592916
-32.118122
-32.564804
-32.931862
-33.218372
-33.423565
-33.546867
-35.258602
-35.129116
-34.913631
-34.612751
-34.227272
-33.758163
-33.206577
-32.573860
-31.861538
-31.071331
-30.205143
-29.265062
-28.253355
-27.172457
-26.024971
34.732822
34.181633
33.549255
32.837215
32.047234
31.181221
30.241268
29.229643
28.148787
27.001312
25.789984
24.517725
23.187607
21.802832
20.366741
18.882795
17.354570
15.785748
14.180106
12.541512
10.873913
9.181321
7.467813
5.737513
3.994585
2.243225
0.487646
-1.267926
-3.019266
-4.762160
-6.492414
-8.205864
-9.898387
-11.565909
-13.204418
-14.809970
-16.378698
-17.906830
-19.390684
-20.826689
-22.211388
-23.541447
-24.813662
-26.024971
-27.172457
-28.253355
-29.265062
-30.205143
-31.071331
-31.861538
-32.573860
-33.206577
-33.758163
-34.227272
-34.612751
-34.913631
-35.129116
-35.258602
-37.056465
-36.920483
-36.694191
-36.378216
-35.973389
-35.480724
-34.901436
-34.236931
-33.488811
-32.658886
-31.749157
-30.761814
-29.699238
-28.563986
-27.358795
36.455395
35.876495
35.212322
34.464481
33.634781
32.725224
31.738005
30.675508
29.540300
28.335119
27.062870
25.726625
24.329607
22.875181
21.366856
19.808266
18.203165
16.555422
14.869005
13.147976
11.396480
9.618732
7.819014
6.001657
4.171036
2.331556
0.487646
-1.356257
-3.195716
-5.026305
-6.843616
-8.643278
-10.420958
-12.172379
-13.893323
-15.579651
-17.227303
-18.832310
-20.390810
-21.899052
-23.353403
-24.750362
-26.086565
-27.358795
-28.563986
-29.699238
-30.761814
-31.749157
-32.658886
-33.488811
-34.236931
-34.901436
-35.480724
-35.973389
-36.378216
-36.694191
-36.920483
-37.056465
-38.944794
-38.801987
-38.564343
-38.232513
-37.807362
-37.289959
-36.681572
-35.983681
-35.197964
-34.326324
-33.370861
-32.333878
-31.217873
-30.025534
-28.759733
-27.423517
38.264641
37.656635
36.959072
36.173630
35.302208
34.346916
33.310055
32.194126
31.001831
29.736038
28.399805
26.996355
25.529070
24.001488
22.417294
20.780300
19.094458
17.363823
15.592566
13.784955
11.945340
10.078152
8.187885
6.279091
4.356364
2.424333
0.487646
-1.449033
-3.381046
-5.303740
-7.212490
-9.102700
-10.969822
-12.809362
-14.616892
-16.388060
-18.118603
-19.804356
-21.441259
-23.025373
-24.552881
-26.020107
-27.423517
-28.759733
-30.025534
-31.217873
-32.333878
-33.370861
-34.326324
-35.197964
-35.983681
-36.681572
-37.289959
-37.807362
-38.232513
-38.564343
-38.801987
-38.944794
-40.928131
-40.778160
-40.528595
-40.180111
-39.733616
-39.190231
-38.551281
-37.818317
-36.993114
-36.077660
-35.074165
-33.985043
-32.812920
-31.560621
-30.231159
-28.827740
40.164925
39.526348
38.793709
37.968773
37.053535
36.050201
34.961201
33.789158
32.536900
31.207447
29.804010
28.329971
26.788885
25.184465
23.520584
21.801245
20.030596
18.212900
16.352535
14.453984
12.521817
10.560688
8.575317
6.570486
4.551018
2.521777
0.487646
-1.546478
-3.575700
-5.595135
-7.599923
-9.585239
-11.546304
-13.478396
-15.376867
-17.237144
-19.054752
-20.825314
-22.544563
-24.208366
-25.812712
-27.353741
-28.827740
-30.231159
-31.560621
-32.812920
-33.985043
-35.074165
-36.077660
-36.993114
-37.818317
-38.551281
-39.190231
-39.733616
-40.180111
-40.528595
-40.778160
-40.928131
-43.011265
-42.853767
-42.591679
-42.225704
-41.756794
-41.186111
-40.515060
-39.745266
-38.878590
-37.917118
-36.863171
-35.719284
-34.488224
-33.172947
-31.776623
-30.302616
42.160816
41.490135
40.720654
39.854240
38.892979
37.839195
36.695427
35.464443
34.149204
32.752892
31.278868
29.730688
28.112087
26.426966
24.679386
22.873560
21.013836
19.104698
17.150742
15.156675
13.127300
11.067503
8.982244
6.876541
4.755466
2.624125
0.487646
-1.648825
-3.780148
-5.901192
-8.006851
-10.092057
-12.151791
-14.181094
-16.175081
-18.128952
-20.038004
-21.897640
-23.703381
-25.450882
-27.135933
-28.754477
-30.302616
-31.776623
-33.172947
-34.488224
-35.719284
-36.863171
-37.917118
-38.878590
-39.745266
-40.515060
-41.186111
-41.756794
-42.225704
-42.591679
-42.853767
-43.011265
-45.199211
-45.033810
-44.758568
-44.374222
-43.881763
-43.282421
-42.577652
-41.769173
-40.858933
-39.849125
-38.742188
-37.540787
-36.247818
-34.866398
-33.399845
-31.851702
44.257137
43.552731
42.744556
41.834576
40.824974
39.718197
38.516914
37.224018
35.842636
34.376095
32.827934
31.201885
29.501869
27.731983
25.896496
23.999828
22.046551
20.041368
17.989111
15.894724
13.763248
11.599819
9.409644
7.197997
4.970201
2.731622
0.487646
-1.756323
-3.994884
-6.222648
-8.434254
-10.624376
-12.787744
-14.919147
-17.013458
-19.065632
-21.070728
-23.023920
-24.920506
-26.755915
-28.525732
-30.225693
-31.851702
-33.399845
-34.866398
-36.247818
-37.540787
-38.742188
-39.849125
-40.858933
-41.769173
-42.577652
-43.282421
-43.881763
-44.374222
-44.758568
-45.033810
-45.199211
-47.497242
-47.323540
-47.034481
-46.630844
-46.113655
-45.484203
-44.744022
-43.894909
-42.938915
-41.878342
-40.715752
-39.453941
-38.095951
-36.645054
-35.104744
-33.478729
46.458931
45.719105
44.870293
43.914551
42.854183
41.691746
40.430046
39.072128
37.621269
36.080971
34.454941
32.747105
30.961576
29.102663
27.174845
25.182764
23.131224
21.025166
18.869663
16.669907
14.431195
12.158918
9.858549
7.535625
5.195741
2.844527
0.487647
-1.869228
-4.220423
-6.560278
-8.883161
-11.183478
-13.455694
-15.694337
-17.894018
-20.049440
-22.155415
-24.206871
-26.198870
-28.126612
-29.985458
-31.770931
-33.478729
-35.104744
-36.645054
-38.095951
-39.453941
-40.715752
-41.878342
-42.938915
-43.894909
-44.744022
-45.484203
-46.113655
-46.630844
-47.034481
-47.323540
-47.497242
-49.910900
-49.728477
-49.424912
-49.001003
-48.457840
-47.796768
-47.019394
-46.127605
-45.123554
-44.009663
-42.788612
-41.463352
-40.037071
-38.513203
-36.895420
-35.187622
48.771511
47.994480
47.102985
46.099182
44.985485
43.764591
42.439438
41.013229
39.489399
37.871624
36.163811
34.370071
32.494728
30.542309
28.517511
26.425220
24.270473
22.058464
19.794519
17.484093
15.132749
12.746149
10.330041
7.890243
5.432628
2.963114
0.487647
-1.987815
-4.457311
-6.914896
-9.354655
-11.770713
-14.157252
-16.508530
-18.818882
-21.082748
-23.294676
-25.449341
-27.541553
-29.566275
-31.518631
-33.393917
-35.187622
-36.895420
-38.513203
-40.037071
-41.463352
-42.788612
-44.009663
-45.123554
-46.127605
-47.019394
-47.796768
-48.457840
-49.001003
-49.424912
-49.728477
-49.910900
-52.445999
-52.254417
-51.935612
-51.490421
-50.919975
-50.225689
-49.409248
-48.472637
-47.418110
-46.248215
-44.965771
-43.573868
-42.075855
-40.475346
-38.776196
-36.982494
51.200443
50.384342
49.448017
48.393730
47.224026
45.941730
44.549931
43.051991
41.451519
39.752377
37.958660
36.074696
34.105022
32.054390
29.927736
27.730190
25.467045
23.143753
20.765909
18.339245
15.869600
13.362926
10.825255
8.262702
5.681434
3.087667
0.487647
-2.112368
-4.706118
-7.287357
-9.849872
-12.387493
-14.894110
-17.363688
-19.790281
-22.168047
-24.491261
-26.754326
-28.951794
-31.078375
-33.128944
-35.098568
-36.982494
-38.776196
-40.475346
-42.075855
-43.573868
-44.965771
-46.248215
-47.418110
-48.472637
-49.409248
-50.225689
-50.919975
-51.490421
-51.935612
-52.254417
-52.445999
-55.108650
-54.907452
-54.572639
-54.105091
-53.505989
-52.776817
-51.919350
-50.935657
-49.828117
-48.599400
-47.252472
-45.790569
-44.217220
-42.536217
-40.751602
-38.867680
53.751591
52.894444
51.911034
50.803726
49.575199
48.228413
46.766613
45.193333
43.512363
41.727756
39.843819
37.865089
35.796337
33.642548
31.408915
29.100819
26.723820
24.283646
21.786175
19.237423
16.643526
14.010735
11.345387
8.653901
5.942759
3.218488
0.487647
-2.243188
-4.967443
-7.678558
-10.370006
-13.035306
-15.668041
-18.261873
-20.810556
-23.307953
-25.748049
-28.124969
-30.432991
-32.666553
-34.820278
-36.888981
-38.867680
-40.751602
-42.536217
-44.217220
-45.790569
-47.252472
-48.599400
-49.828117
-50.935657
-51.919350
-52.776817
-53.505989
-54.105091
-54.572639
-54.907452
-55.108650
-57.905273
-57.693966
-57.342342
-56.851315
-56.222118
-55.456306
-54.555740
-53.522602
-52.359383
-51.068886
-49.654224
-48.118805
-46.466328
-44.700775
-42.826397
-40.847710
56.431095
55.530846
54.497974
53.334980
52.044666
50.630146
49.094826
47.442417
45.676899
43.802528
41.823826
39.745564
37.572746
35.310616
32.964619
30.540409
28.043829
25.480892
22.857775
20.180792
17.456392
14.691138
11.891688
9.064783
6.217232
3.355890
0.487647
-2.380591
-5.241917
-8.089441
-10.916309
-13.715713
-16.480913
-19.205250
-21.882164
-24.505211
-27.068071
-29.564577
-31.988712
-34.334640
-36.596714
-38.769482
-40.847710
-42.826397
-44.700775
-46.466328
-48.118805
-49.654224
-51.068886
-52.359383
-53.522602
-54.555740
-55.456306
-56.222118
-56.851315
-57.342342
-57.693966
-57.905273
-60.842602
-60.620686
-60.251404
-59.735714
-59.074905
-58.270611
-57.324780
-56.239704
-55.018002
-53.662617
-52.176819
-50.564182
-48.828598
-46.974243
-45.005585
-42.927368
59.245415
58.299889
57.215076
55.993591
54.638382
53.152718
51.540180
49.804657
47.950336
45.981689
43.903458
41.720650
39.438534
37.062607
34.598595
32.052429
29.430252
26.738377
23.983290