VARIABLES="X","Y","Z","p","rho","u","v","w"
ZONE T="Element0"
Nodes=8452, Elements=4089, ZONETYPE=FEBRICK
DATAPACKING=BLOCK
VARLOCATION = ([4,5,6,7,8] = CELLCENTERED)
-0.004813
-0.010750
-0.017822
-0.026042
-0.035432
-0.046015
-0.057818
-0.070871
-0.085207
-0.100864
-0.117882
-0.136303
-0.156175
-0.177547
-0.200473
-0.225011
-0.251221
-0.279168
-0.308921
-0.340554
-0.374145
-0.409775
-0.447531
-0.487507
-0.529799
-0.574510
-0.621750
-0.671632
-0.724278
-0.779815
-0.838378
-0.900109
-0.965157
-1.033680
-1.105842
-1.181819
-1.261794
-1.345960
-1.434519
-1.527687
-1.625688
-1.728758
-1.837145
-1.951112
-2.070933
-2.196898
-2.329309
-2.468486
-2.614765
-2.768498
-2.930057
-3.099829
-3.278226
-3.465676
-3.662632
-3.869569
-4.086984
-4.315403
-4.555375
-4.807479
-5.072323
-5.350546
-5.642817
-5.949841
-6.272358
-6.611145
-6.967020
-7.340839
-7.733504
-8.145960
-8.579203
-9.034275
-9.512275
0.000000
-0.004813
-0.010750
-0.017822
-0.026042
-0.035432
-0.046015
-0.057818
-0.070871
-0.085207
-0.100864
-0.117882
-0.136303
-0.156175
-0.177547
-0.200473
-0.225011
-0.251221
-0.279168
-0.308921
-0.340554
-0.374145
-0.409775
-0.447531
-0.487507
-0.529799
-0.574510
-0.621750
-0.671632
-0.724278
-0.779815
-0.838378
-0.900109
-0.965157
-1.033680
-1.105842
-1.181819
-1.261794
-1.345960
-1.434519
-1.527687
-1.625688
-1.728758
-1.837145
-1.951112
-2.070933
-2.196898
-2.329309
-2.468486
-2.614765
-2.768498
-2.930057
-3.099829
-3.278226
-3.465676
-3.662632
-3.869569
-4.086984
-4.315403
-4.555375
-4.807479
-5.072323
-5.350546
-5.642817
-5.949841
-6.272358
-6.611145
-6.967020
-7.340839
-7.733504
-8.145960
-8.579203
-9.034275
-9.512275
0.000000
0.000618
0.933498
0.919076
0.903637
0.887237
0.869938
0.851798
0.832879
0.813240
0.792942
0.772043
0.750605
0.728685
0.706341
0.683631
0.660610
0.637333
0.613855
0.590227
0.566501
0.542727
0.518955
0.495232
0.471604
0.448117
0.424815
0.401742
0.378939
0.356449
0.334312
0.312567
0.291254
0.270410
0.250074
0.230282
0.211071
0.192475
0.174531
0.157273
0.140734
0.124948
0.109947
0.095763
0.082428
0.069973
0.058427
0.047821
0.038184
0.029546
0.021936
0.015388
0.009935
0.005620
0.002497
0.000618
0.000618
0.933498
0.919076
0.903637
0.887237
0.869938
0.851798
0.832879
0.813240
0.792942
0.772043
0.750605
0.728685
0.706341
0.683631
0.660610
0.637333
0.613855
0.590227
0.566501
0.542727
0.518955
0.495232
0.471604
0.448117
0.424815
0.401742
0.378939
0.356449
0.334312
0.312567
0.291254
0.270410
0.250074
0.230282
0.211071
0.192475
0.174531
0.157273
0.140734
0.124948
0.109947
0.095763
0.082428
0.069973
0.058427
0.047821
0.038184
0.029546
0.021936
0.015388
0.009935
0.005620
0.002497
0.000618
-0.004190
0.936211
0.921926
0.906607
0.890311
0.873098
0.855026
0.836156
0.816546
0.796257
0.775348
0.753878
0.731907
0.709492
0.686690
0.663559
0.640153
0.616527
0.592735
0.568828
0.544857
0.520873
0.496925
0.473060
0.449325
0.425766
0.402427
0.379352
0.356584
0.334165
0.312136
0.290538
0.269410
0.248792
0.228722
0.209237
0.190375
0.172172
0.154664
0.137885
0.121870
0.106652
0.092265
0.078740
0.066109
0.054402
0.043650
0.033882
0.025127
0.017415
0.010778
0.005251
0.000877
-0.002289
-0.004190
-0.010119
0.939982
0.925781
0.910529
0.894284
0.877103
0.859045
0.840168
0.820533
0.800198
0.779222
0.757666
0.735588
0.713046
0.690098
0.666801
0.643212
0.619384
0.595373
0.571232
0.547012
0.522765
0.498541
0.474388
0.450356
0.426490
0.402837
0.379443
0.356351
0.333605
0.311249
0.289323
0.267870
0.246929
0.226542
0.206746
0.187580
0.169082
0.151290
0.134238
0.117962
0.102498
0.087878
0.074135
0.061302
0.049410
0.038488
0.028566
0.019674
0.011841
0.005098
-0.000520
-0.004968
-0.008187
-0.010119
-0.017179
0.944828
0.930660
0.915425
0.899179
0.881977
0.863878
0.844941
0.825225
0.804788
0.783691
0.761992
0.739751
0.717026
0.693876
0.670358
0.646529
0.622445
0.598160
0.573730
0.549207
0.524643
0.500090
0.475598
0.451217
0.426994
0.402979
0.379216
0.355753
0.332634
0.309905
0.287607
0.265785
0.244480
0.223734
0.203587
0.184079
0.165250
0.147137
0.129778
0.113209
0.097466
0.082584
0.068595
0.055533
0.043429
0.032313
0.022216
0.013166
0.005193
-0.001673
-0.007396
-0.011929
-0.015211
-0.017179
-0.025388
0.950767
0.936585
0.921316
0.905016
0.887741
0.869549
0.850498
0.830646
0.810052
0.788777
0.766880
0.744419
0.721455
0.698046
0.674250
0.650125
0.625728
0.601114
0.576338
0.551456
0.526521
0.501585
0.476700
0.451917
0.427286
0.402856
0.378675
0.354791
0.331251
0.308101
0.285385
0.263149
0.241436
0.220289
0.199750
0.179860
0.160661
0.142191
0.124489
0.107593
0.091539
0.076363
0.062099
0.048780
0.036439
0.025105
0.014810
0.005582
-0.002550
-0.009554
-0.015395
-0.020025
-0.023378
-0.025388
-0.034764
0.957821
0.943575
0.928223
0.911819
0.894420
0.876082
0.856862
0.836820
0.816014
0.794505
0.772352
0.749616
0.726355
0.702629
0.678498
0.654019
0.629251
0.604250
0.579073
0.553775
0.528412
0.503037
0.477704
0.452465
0.427371
0.402473
0.377822
0.353466
0.329454
0.305834
0.282653
0.259956
0.237789
0.216196
0.195223
0.174910
0.155300
0.136435
0.118353
0.101094
0.084696
0.069194
0.054625
0.041021
0.028416
0.016840
0.006324
-0.003102
-0.011411
-0.018569
-0.024541
-0.029277
-0.032708
-0.034764
-0.045331
0.966008
0.951652
0.936169
0.919613
0.902037
0.883500
0.864058
0.843771
0.822698
0.800899
0.778434
0.755364
0.731748
0.707647
0.683122
0.658230
0.633032
0.607585
0.581948
0.556176
0.530327
0.504456
0.478617
0.452865
0.427253
0.401834
0.376658
0.351777
0.327242
0.303101
0.279403
0.256197
0.233529
0.211446
0.189992
0.169213
0.149152
0.129851
0.111352
0.093694
0.076916
0.061056
0.046150
0.032232
0.019336
0.007493
-0.003266
-0.012912
-0.021415
-0.028742
-0.034857
-0.039709
-0.043225
-0.045331
-0.057117
0.975352
0.960841
0.945179
0.928420
0.910618
0.891830
0.872113
0.851527
0.830130
0.807984
0.785149
0.761686
0.737656
0.713121
0.688141
0.662777
0.637089
0.611136
0.584978
0.558673
0.532278
0.505851
0.479448
0.453126
0.426938
0.400939
0.375183
0.349722
0.324609
0.299895
0.275630
0.251864
0.228646
0.206024
0.184045
0.162755
0.142199
0.122421
0.103464
0.085369
0.068176
0.051923
0.036648
0.022386
0.009171
-0.002964
-0.013990
-0.023875
-0.032589
-0.040102
-0.046372
-0.051349
-0.054957
-0.057117
-0.070151
-0.067933
-0.064227
0.985876
0.971165
0.955278
0.938268
0.920189
0.901098
0.881052
0.860111
0.838335
0.815784
0.792520
0.768606
0.744102
0.719072
0.693577
0.667679
0.641439
0.614919
0.588178
0.561277
0.534275
0.507232
0.480204
0.453251
0.426428
0.399791
0.373397
0.347299
0.321552
0.296210
0.271324
0.246946
0.223127
0.199916
0.177364
0.155516
0.134421
0.114123
0.094667
0.076096
0.058450
0.041770
0.026093
0.011456
-0.002106
-0.014560
-0.025875
-0.036021
-0.044966
-0.052677
-0.059116
-0.064227
-0.067933
-0.070151
-0.084468
-0.082187
-0.078376
0.997607
0.982652
0.966494
0.949185
0.930779
0.911332
0.890903
0.869552
0.847339
0.824326
0.800575
0.776148
0.751110
0.725523
0.699450
0.672955
0.646100
0.618948
0.591562
0.564002
0.536330
0.508606
0.480892
0.453245
0.425725
0.398390
0.371297
0.344504
0.318066
0.292038
0.266475
0.241431
0.216958
0.193108
0.169932
0.147479
0.125798
0.104936
0.084938
0.065850
0.047713
0.030568
0.014456
-0.000588
-0.014526
-0.027326
-0.038955
-0.049382
-0.058576
-0.066502
-0.073121
-0.078376
-0.082187
-0.084468
-0.100104
-0.097756
-0.093834
1.010573
0.995332
0.978857
0.961200
0.942416
0.922561
0.901696
0.879878
0.857171
0.833636
0.809337
0.784337
0.758702
0.732494
0.705780
0.678624
0.651089
0.623241
0.595143
0.566859
0.538451
0.509983
0.481516
0.453112
0.424832
0.396736
0.368883
0.341332
0.314142
0.287370
0.261073
0.235306
0.210124
0.185581
0.161730
0.138622
0.116307
0.094834
0.074251
0.054603
0.035935
0.018289
0.001705
-0.013778
-0.028123
-0.041296
-0.053264
-0.063994
-0.073455
-0.081613
-0.088425
-0.093834
-0.097756
-0.100104
-0.117098
-0.114680
-0.110639
1.024806
1.009235
0.992397
0.974344
0.955132
0.934817
0.913459
0.891119
0.867859
0.843743
0.818835
0.793199
0.766903
0.740011
0.712589
0.684705
0.656424
0.627813
0.598936
0.569860
0.540650
0.511370
0.482084
0.452856
0.423750
0.394827
0.366149
0.337778
0.309774
0.282197
0.255105
0.228557
0.202609
0.177318
0.152738
0.128922
0.105923
0.083792
0.062577
0.042326
0.023086
0.004899
-0.012193
-0.028149
-0.042932
-0.056507
-0.068839
-0.079895
-0.089643
-0.098048
-0.105067
-0.110639
-0.114680
-0.117098
-0.135495
-0.133001
-0.128835
1.024396
1.007149
0.988652
0.968960
0.948132
0.926226
0.903306
0.879434
0.854675
0.829095
0.802760
0.775737
0.748094
0.719899
0.691219
0.662124
0.632680
0.602955
0.573018
0.542935
0.512774
0.482600
0.452480
0.422479
0.392662
0.363093
0.333835
0.304953
0.276507
0.248558
0.221168
0.194395
0.168297
0.142932
0.118355
0.094620
0.071781
0.049887
0.028988
0.009132
-0.009636
-0.027273
-0.043738
-0.058991
-0.072997
-0.085719
-0.097125
-0.107181
-0.115850
-0.123088
-0.128835
-0.133001
-0.135495
-0.155341
-0.152767
-0.148467
1.040851
1.023149
1.004159
0.983937
0.962540
0.940031
0.916472
0.891928
0.866464
0.840148
0.813048
0.785232
0.756770
0.727731
0.698186
0.668205
0.637857
0.607214
0.576344
0.545316
0.514202
0.483068
0.451985
0.421019
0.390237
0.359708
0.329496
0.299667
0.270286
0.241417
0.213121
0.185462
0.158498
0.132290
0.106896
0.082371
0.058771
0.036148
0.014554
-0.005962
-0.025354
-0.043575
-0.060585
-0.076342
-0.090809
-0.103949
-0.115728
-0.126112
-0.135063
-0.142535
-0.148467
-0.152767
-0.155341
-0.176685
-0.174027
-0.169585
1.058641
1.040438
1.020905
1.000099
0.978080
0.954910
0.930652
0.905374
0.879142
0.852024
0.824091
0.795414
0.766063
0.736110
0.705627
0.674688
0.643363
0.611726
0.579849
0.547803
0.515661
0.483494
0.451373
0.419368
0.387550
0.355988
0.324751
0.293907
0.263522
0.233664
0.204398
0.175787
0.147896
0.120785
0.094515
0.069144
0.044729
0.021326
-0.001012
-0.022234
-0.042292
-0.061140
-0.078732
-0.095028
-0.109987
-0.123574
-0.135752
-0.146485
-0.155736
-0.163457
-0.169585
-0.174027
-0.176685
-0.199582
-0.196834
-0.192242
1.077807
1.059056
1.038930
1.017488
0.994790
0.970900
0.945884
0.919807
0.892741
0.864755
0.835921
0.806311
0.775999
0.745058
0.713564
0.681591
0.649214
0.616507
0.583545
0.550404
0.517158
0.483880
0.450645
0.417526
0.384596
0.351927
0.319591
0.287658
0.256199
0.225283
0.194978
0.165350
0.136465
0.108388
0.081182
0.054906
0.029622
0.005385
-0.017748
-0.039725
-0.060495
-0.080011
-0.098225
-0.115095
-0.130581
-0.144643
-0.157246
-0.168351
-0.177920
-0.185906
-0.192242
-0.196834
-0.199582
-0.224088
-0.221245
-0.216494
1.098397
1.079050
1.058280
1.036147
1.012713
0.988043
0.962205
0.935266
0.907298
0.878374
0.848567
0.817953
0.786605
0.754602
0.722019
0.688935
0.655426
0.621571
0.587446
0.553129
0.518699
0.484231
0.449802
0.415490
0.381370
0.347516
0.314004
0.280908
0.248301
0.216253
0.184838
0.154123
0.124179
0.095070
0.066864
0.039624
0.013411
-0.011715
-0.035697
-0.058478
-0.080008
-0.100235
-0.119112
-0.136595
-0.152640
-0.167209
-0.180263
-0.191764
-0.201672
-0.209938
-0.216494
-0.221245
-0.224088
-0.250265
-0.247321
-0.242402
1.120459
1.100467
1.079000
1.056121
1.031893
1.006382
0.979657
0.951789
0.922851
0.892918
0.862065
0.830370
0.797911
0.764767
0.731016
0.696740
0.662019
0.626933
0.591562
0.555987
0.520290
0.484549
0.448845
0.413257
0.377865
0.342747
0.307980
0.273641
0.239808
0.206554
0.173955
0.142081
0.111006
0.080799
0.051528
0.023259
-0.003943
-0.030017
-0.054902
-0.078540
-0.100878
-0.121863
-0.141446
-0.159579
-0.176220
-0.191328
-0.204862
-0.216783
-0.227050
-0.235613
-0.242402
-0.247321
-0.250265
-0.278177
-0.275126
-0.270030
1.144047
1.123359
1.101143
1.077460
1.052377
1.025962
0.998284
0.969419
0.939439
0.908423
0.876449
0.843596
0.809946
0.775579
0.740579
0.705028
0.669010
0.632608
0.595906
0.558988
0.521937
0.484838
0.447772
0.410824
0.374075
0.337608
0.301503
0.265842
0.230702
0.196163
0.162302
0.129196
0.096917
0.065540
0.035135
0.005772
-0.022483
-0.049565
-0.075410
-0.099960
-0.123157
-0.144948
-0.165280
-0.184106
-0.201380
-0.217059
-0.231102
-0.243469
-0.254116
-0.262994
-0.270030
-0.275126
-0.278177
-0.307893
-0.304730
-0.299446
1.169217
1.147782
1.124760
1.100216
1.074216
1.046831
1.018133
0.988199
0.957104
0.924929
0.891756
0.857665
0.822741
0.787069
0.750734
0.713822
0.676420
0.638614
0.600492
0.562141
0.523648
0.485100
0.446584
0.408186
0.369993
0.332090
0.294561
0.257491
0.220962
0.185056
0.149854
0.115435
0.081877
0.049256
0.017646
-0.012881
-0.042254
-0.070406
-0.097272
-0.122790
-0.146900
-0.169546
-0.190674
-0.210235
-0.228180
-0.244465
-0.259049
-0.271888
-0.282939
-0.292149
-0.299446
-0.304730
-0.307893
-0.339487
-0.336204
-0.330722
1.196029
1.173794
1.149911
1.124444
1.097463
1.069041
1.039253
1.008176
0.975890
0.942478
0.908024
0.872612
0.836330
0.799266
0.761507
0.723144
0.684267
0.644966
0.605331
0.565455
0.525426
0.485337
0.445278
0.405339
0.365610
0.326180
0.287137
0.248570
0.210564
0.173205
0.136579
0.100766
0.065849
0.031907
-0.000982
-0.032743
-0.063303
-0.092592
-0.120541
-0.147086
-0.172165
-0.195718
-0.217691
-0.238030
-0.256687
-0.273615
-0.288770
-0.302110
-0.313587
-0.323149
-0.330722
-0.336204
-0.339487
-0.373035
-0.369628
-0.363936
1.224547
1.201458
1.176654
1.150203
1.122176
1.092647
1.061695
1.029400
0.995844
0.961114
0.925295
0.888476
0.850747
0.812200
0.772926
0.733020
0.692573
0.651681
0.610439
0.568940
0.527280
0.485553
0.443854
0.402278
0.360917
0.319865
0.279215
0.239058
0.199485
0.160585
0.122446
0.085155
0.048796
0.013453
-0.020793
-0.053864
-0.085683
-0.116177
-0.145274
-0.172908
-0.199013
-0.223528
-0.246395
-0.267560
-0.286970
-0.304579
-0.320340
-0.334208
-0.346137
-0.356072
-0.363936
-0.369628
-0.373035
-0.408621
-0.405081
-0.399169
1.254840
1.230841
1.205056
1.177555
1.148413
1.117706
1.085515
1.051923
1.017016
0.980882
0.943611
0.905295
0.866028
0.825905
0.785021
0.743474
0.701360
0.658779
0.615828
0.572607
0.529214
0.485749
0.442310
0.398995
0.355903
0.313132
0.270776
0.228934
0.187698
0.147164
0.107422
0.068563
0.030677
-0.006151
-0.041835
-0.076294
-0.109447
-0.141217
-0.171531
-0.200318
-0.227510
-0.253043
-0.276858
-0.298896
-0.319104
-0.337433
-0.353835
-0.368263
-0.380669
-0.390996
-0.399169
-0.405081
-0.408621
-0.446332
-0.442651
-0.436506
1.262013
1.235184
1.206567
1.176239
1.144279
1.110771
1.075800
1.039457
1.001832
0.963019
0.923113
0.882213
0.840416
0.797822
0.754533
0.710650
0.666276
0.621513
0.576465
0.531235
0.485926
0.440642
0.395485
0.350558
0.305964
0.261802
0.218173
0.175177
0.132910
0.091471
0.050952
0.011447
-0.026953
-0.064160
-0.100087
-0.134652
-0.167774
-0.199375
-0.229383
-0.257725
-0.284336
-0.309152
-0.332114
-0.353167
-0.372257
-0.389336
-0.404356
-0.417266
-0.428008
-0.436506
-0.442651
-0.446332
-0.486258
-0.482430
-0.476039
1.295049
1.267111
1.237309
1.205721
1.172431
1.137524
1.101090
1.063222
1.024015
0.983565
0.941973
0.899340
0.855768
0.811362
0.766226
0.720468
0.674193
0.627510
0.580526
0.533349
0.486087
0.438848
0.391740
0.344870
0.298345
0.252270
0.206751
0.161890
0.117791
0.074554
0.032279
-0.008939
-0.049002
-0.087820
-0.125301
-0.161360
-0.195911
-0.228875
-0.260173
-0.289732
-0.317482
-0.343358
-0.367297
-0.389241
-0.409136
-0.426931
-0.442575
-0.456018
-0.467199
-0.476039
-0.482430
-0.486258
-0.528498
-0.524514
-0.517864
1.330028
1.300914
1.269855
1.236931
1.202230
1.165840
1.127855
1.088370
1.047486
1.005302
0.961923
0.917453
0.872001
0.825674
0.778583
0.730838
0.682551
0.633834
0.584800
0.535562
0.486233
0.436925
0.387753
0.338826
0.290259
0.242160
0.194640
0.147808
0.101770
0.056632
0.012499
-0.030529
-0.072352
-0.112873
-0.151998
-0.189635
-0.225698
-0.260100
-0.292763
-0.323607
-0.352562
-0.379557
-0.404528
-0.427414
-0.448160
-0.466711
-0.483015
-0.497019
-0.508662
-0.517864
-0.524514
-0.528498
-0.573155
-0.569007
-0.562083
1.367036
1.336675
1.304283
1.269944
1.233748
1.195787
1.156158
1.114962
1.072302
1.028281
0.983010
0.936596
0.889153
0.840794
0.791633
0.741786
0.691370
0.640501
0.589299
0.537881
0.486365
0.434870
0.383513
0.332413
0.281685
0.231447
0.181812
0.132895
0.084808
0.037662
-0.008435
-0.053377
-0.097058
-0.139379
-0.180240
-0.219546
-0.257205
-0.293128
-0.327231
-0.359434
-0.389660
-0.417838
-0.443899
-0.467780
-0.489423
-0.508771
-0.525772
-0.540369
-0.552500
-0.562083
-0.569007
-0.573155
-0.620337
-0.616016
-0.608803
1.406161
1.374480
1.340677
1.304840
1.267061
1.227438
1.186071
1.143063
1.098523
1.052560
1.005286
0.956817
0.907269
0.856760
0.805410
0.753340
0.700672
0.647529
0.594035
0.540312
0.486485
0.432678
0.379013
0.325615
0.272605
0.220106
0.168237
0.117118
0.066867
0.017598
-0.030573
-0.077536
-0.123181
-0.167402
-0.210097
-0.251164
-0.290509
-0.328038
-0.363663
-0.397299
-0.428868
-0.458293
-0.485504
-0.510436
-0.533026
-0.553216
-0.570951
-0.586173
-0.598818
-0.608803
-0.616016
-0.620337
-0.670158
-0.665655
-0.658139
1.447496
1.414420
1.379125
1.341703
1.302251
1.260870
1.217664
1.172741
1.126214
1.078197
1.028807
0.978164
0.926391
0.873610
0.819947
0.765528
0.710482
0.654936
0.599019
0.542862
0.486594
0.430344
0.374242
0.318417
0.262998
0.208111
0.153883
0.100438
0.047901
-0.003607
-0.053968
-0.103065
-0.150782
-0.197010
-0.241640
-0.284567
-0.325690
-0.364913
-0.402144
-0.437293
-0.470278
-0.501020
-0.529445
-0.555485
-0.579073
-0.600152
-0.618661
-0.634543
-0.647730
-0.658139
-0.665655
-0.670158
-0.722740
-0.718044
-0.710209
1.491142
1.456591
1.419719
1.380623
1.339402
1.296163
1.251014
1.204068
1.155442
1.105255
1.053629
1.000691
0.946567
0.891387
0.835281
0.778382
0.720823
0.662739
0.604266
0.545538
0.486692
0.427864
0.369189
0.310803
0.252839
0.195432
0.138715
0.082816
0.027867
-0.026005
-0.078677
-0.130025
-0.179929
-0.228273
-0.274945
-0.319833
-0.362834
-0.403844
-0.442769
-0.479514
-0.513993
-0.546124
-0.575829
-0.603036
-0.627678
-0.649692
-0.669018
-0.685595
-0.699354
-0.710209
-0.718044
-0.722740
-0.778210
-0.773312
-0.765139
1.537204
1.501094
1.462557
1.421692
1.378604
1.333403
1.286202
1.237120
1.186277
1.133799
1.079814
1.024452
0.967847
0.910133
0.851448
0.791931
0.731721
0.670959
0.609787
0.548347
0.486782
0.425233
0.363843
0.302754
0.242107
0.182041
0.122697
0.064210
0.006717
-0.049650
-0.104758
-0.158481
-0.210691
-0.261268
-0.310093
-0.357050
-0.402029
-0.444925
-0.485635
-0.524063
-0.560117
-0.593712
-0.624766
-0.653205
-0.678957
-0.701958
-0.722144
-0.739453
-0.753814
-0.765139
-0.773312
-0.778210
-0.836703
-0.831591
-0.823064
1.585793
1.548037
1.507742
1.465011
1.419952
1.372680
1.323314
1.271977
1.218795
1.163899
1.107424
1.049504
0.990281
0.929895
0.868490
0.806211
0.743204
0.679617
0.615598
0.551297
0.486863
0.422444
0.358191
0.294252
0.230774
0.167906
0.105791
0.044575
-0.015601
-0.074597
-0.132275
-0.188501
-0.243143
-0.296073
-0.347168
-0.396306
-0.443371
-0.488254
-0.530846
-0.571047
-0.608762
-0.643900
-0.676376
-0.706112
-0.733035
-0.757075
-0.778168
-0.796248
-0.811243
-0.823064
-0.831591
-0.836703
-0.898359
-0.893023
-0.884122
-0.871780
-0.856117
1.637025
1.597534
1.555384
1.510683
1.463545
1.414089
1.362439
1.308723
1.253074
1.195628
1.136526
1.075910
1.013926
0.950721
0.886447
0.821255
0.755299
0.688733
0.621713
0.554395
0.486936
0.419492
0.352221
0.285277
0.218816
0.152992
0.087957
0.023864
-0.039140
-0.100907
-0.161293
-0.220157
-0.277362
-0.332773
-0.386259
-0.437695
-0.486960
-0.533935
-0.578511
-0.620581
-0.660045
-0.696809
-0.730783
-0.761886
-0.790042
-0.815177
-0.837225
-0.856117
-0.871780
-0.884122
-0.893023
-0.898359
-0.963328
-0.957756
-0.948462
-0.935571
-0.919205
1.691023
1.649702
1.605597
1.558820
1.509489
1.457730
1.403671
1.347448
1.289197
1.229063
1.167192
1.103732
1.038837
0.972662
0.905363
0.837101
0.768036
0.698330
0.628147
0.557649
0.487003
0.416371
0.345918
0.275807
0.206202
0.137264
0.069153
0.002028
-0.063955
-0.128642
-0.191882
-0.253527
-0.313431
-0.371455
-0.427462
-0.481319
-0.532899
-0.582080
-0.628745
-0.672784
-0.714091
-0.752567
-0.788119
-0.820662
-0.850115
-0.876404
-0.899457
-0.919205
-0.935571
-0.948462
-0.957756
-0.963328
-1.031768
-1.025947
-1.016239
-1.002770
-0.985664
1.747919
1.704669
1.658502
1.609536
1.557895
1.503708
1.447111
1.388244
1.327252
1.264285
1.199495
1.133039
1.065076
0.995770
0.925285
0.853787
0.781447
0.708432
0.634916
0.561068
0.487063
0.413072
0.339267
0.265821
0.192903
0.120684
0.049332
-0.020986
-0.090108
-0.157871
-0.224116
-0.288689
-0.351437
-0.412214
-0.470874
-0.527281
-0.581301
-0.632804
-0.681670
-0.727782
-0.771029
-0.811308
-0.848522
-0.882581
-0.913401
-0.940904
-0.965016
-0.985664
-1.002770
-1.016239
-1.025947
-1.031768
-1.103843
-1.097760
-1.087617
-1.073540
-1.055655
1.807849
1.762566
1.714227
1.662955
1.608878
1.552134
1.492862
1.431211
1.367331
1.301378
1.233514
1.163901
1.092707
1.020103
0.946260
0.871355
0.795563
0.719064
0.642036
0.564661
0.487118
0.409588
0.332254
0.255294
0.178888
0.103214
0.028449
-0.045233
-0.117660
-0.188662
-0.258072
-0.325729
-0.391471
-0.455146
-0.516602
-0.575693
-0.632281
-0.686230
-0.737413
-0.785707
-0.830997
-0.873175
-0.912138
-0.947793
-0.980052
-1.008833
-1.034060
-1.055655
-1.073540
-1.087617
-1.097760
-1.103843
-1.179728
-1.173370
-1.162768
-1.148052
-1.129348
1.870957
1.823533
1.772906
1.719204
1.662563
1.603125
1.541036
1.476452
1.409529
1.340433
1.269330
1.196393
1.121796
1.045718
0.968340
0.889846
0.810421
0.730251
0.649526
0.568435
0.487167
0.405913
0.324861
0.244202
0.164123
0.084811
0.006452
-0.070771
-0.146678
-0.221090
-0.293832
-0.364735
-0.433630
-0.500356
-0.564754
-0.626672
-0.685963
-0.742487
-0.796108
-0.846700
-0.894140
-0.938316
-0.979121
-1.016456
-1.050229
-1.080355
-1.106754
-1.129348
-1.148052
-1.162768
-1.173370
-1.179728
-1.259606
-1.252958
-1.241875
-1.226486
-1.206919
1.937395
1.887716
1.834680
1.778420
1.719079
1.656803
1.591749
1.524076
1.453951
1.381544
1.307032
1.230594
1.152414
1.072679
0.991578
0.909306
0.826054
0.742022
0.657404
0.572402
0.487212
0.402036
0.317071
0.232517
0.148572
0.065431
-0.016711
-0.097661
-0.177231
-0.255232
-0.331482
-0.405802
-0.478015
-0.547952
-0.615447
-0.680339
-0.742476
-0.801709
-0.857897
-0.910907
-0.960610
-1.006889
-1.049632
-1.088735
-1.124101
-1.155643
-1.183276
-1.206919
-1.226486
-1.241875
-1.252958
-1.259606
-1.343670
-1.336718
-1.325127
-1.309030
-1.288556
-1.263809
-1.234878
2.007324
1.955271
1.899699
1.840746
1.778561
1.713300
1.645123
1.574199
1.500701
1.424810
1.346709
1.266586
1.184634
1.101049
1.016031
0.929781
0.842503
0.754404
0.665690
0.576570
0.487253
0.397949
0.308866
0.220213
0.132199
0.045028
-0.041096
-0.125969
-0.209393
-0.291172
-0.371113
-0.449028
-0.524733
-0.598049
-0.668803
-0.736826
-0.801957
-0.864041
-0.922930
-0.978483
-1.030568
-1.079060
-1.123841
-1.164804
-1.201847
-1.234878
-1.263809
-1.288556
-1.309030
-1.325127
-1.336718
-1.343670
-1.432123
-1.424850
-1.412727
-1.395885
-1.374457
-1.348548
-1.318252
2.080911
2.026360
1.968118
1.906331
1.841154
1.772750
1.701286
1.626941
1.549894
1.470335
1.388457
1.304456
1.218535
1.130899
1.041758
0.951322
0.859807
0.767427
0.674402
0.580950
0.487290
0.393642
0.300226
0.207260
0.114964
0.023552
-0.066760
-0.155761
-0.243241
-0.328995
-0.412819
-0.494518
-0.573897
-0.650768
-0.724950
-0.796267
-0.864548
-0.929631
-0.991362
-1.049592
-1.104182
-1.155002
-1.201928
-1.244847
-1.283654
-1.318252
-1.348548
-1.374457
-1.395885
-1.412727
-1.424850
-1.432123
-1.525179
-1.517569
-1.504884
-1.487259
-1.464828
-1.437698
-1.405965
2.158335
2.101155
2.040104
1.975334
1.907009
1.835297
1.760375
1.682429
1.601649
1.518231
1.432378
1.344296
1.254199
1.162300
1.068820
0.973981
0.878007
0.781125
0.683563
0.585553
0.487323
0.389105
0.291130
0.193627
0.096826
0.000952
-0.093767
-0.187110
-0.278857
-0.368792
-0.456702
-0.542381
-0.625624
-0.706236
-0.784025
-0.858806
-0.930401
-0.998639
-1.063359
-1.124404
-1.181630
-1.234898
-1.284081
-1.329058
-1.369720
-1.405965
-1.437698
-1.464828
-1.487259
-1.504884
-1.517569
-1.525179
-1.623061
-1.615097
-1.601823
-1.583374
-1.559887
-1.531473
-1.498230
2.239781
2.179835
2.115829
2.047921
1.976283
1.901091
1.822532
1.740798
1.656089
1.568611
1.478577
1.386203
1.291711
1.195328
1.097284
0.997812
0.897147
0.795529
0.693196
0.590390
0.487354
0.384329
0.281557
0.179281
0.077741
-0.022825
-0.122180
-0.220091
-0.316326
-0.410659
-0.502867
-0.592731
-0.680040
-0.764586
-0.846169
-0.924593
-0.999674
-1.071231
-1.139094
-1.203101
-1.263098
-1.318942
-1.370497
-1.417639
-1.460252
-1.498230
-1.531473
-1.559887
-1.583374
-1.601823
-1.615097
-1.623061
-1.726007
-1.717670
-1.703776
-1.684461
-1.659865
-1.630100
-1.595269
-1.555469
-1.510804
2.325446
2.262591
2.195475
2.124267
2.049145
1.970292
1.887906
1.802187
1.713346
1.621598
1.527165
1.430276
1.331163
1.230063
1.127219
1.022873
0.917275
0.810674
0.703323
0.595473
0.487381
0.379300
0.271484
0.164188
0.057664
-0.047838
-0.152069
-0.254783
-0.355739
-0.454697
-0.551425
-0.645692
-0.737276
-0.825959
-0.911531
-0.993788
-1.072534
-1.147581
-1.218751
-1.285872
-1.348783
-1.407335
-1.461385
-1.510804
-1.555469
-1.595269
-1.630100
-1.659865
-1.684461
-1.703776
-1.717670
-1.726007
-1.834263
-1.825535
-1.810989
-1.790764
-1.765001
-1.733817
-1.697315
-1.655599
-1.608777
2.415537
2.349621
2.279236
2.204556
2.125768
2.043067
1.956656
1.866746
1.773559
1.677320
1.578261
1.476623
1.372650
1.266589
1.158696
1.049225
0.938439
0.826598
0.713969
0.600815
0.487406
0.374008
0.260887
0.148312
0.036546
-0.074146
-0.183504
-0.291270
-0.397190
-0.501012
-0.602492
-0.701390
-0.797469
-0.890503
-0.980270
-1.066557
-1.149158
-1.227875
-1.302520
-1.372916
-1.438892
-1.500292
-1.556966
-1.608777
-1.655599
-1.697315
-1.733817
-1.765001
-1.790764
-1.810989
-1.825535
-1.834263
-1.948093
-1.938953
-1.923722
-1.902540
-1.875551
-1.842873
-1.804616
-1.760886
-1.711796
2.510269
2.441136
2.367312
2.288982
2.206340
2.119590
2.028946
1.934630
1.836872
1.735910
1.631987
1.525356
1.416271
1.304994
1.191791
1.076932
0.960689
0.843339
0.725159
0.606429
0.487429
0.368439
0.249741
0.131614
0.014338
-0.101813
-0.216562
-0.329640
-0.440779
-0.549716
-0.656193
-0.759958
-0.860765
-0.958374
-1.052552
-1.143075
-1.229728
-1.312304
-1.390604
-1.464443
-1.533642
-1.598035
-1.657468
-1.711796
-1.760886
-1.804616
-1.842873
-1.875551
-1.902540
-1.923722
-1.938953
-1.948093
-2.067770
-2.058197
-2.042245
-2.020057
-1.991779
-1.957532
-1.917429
-1.871582
-1.820107
2.609873
2.537355
2.459916
2.377747
2.291053
2.200046
2.104952
2.006002
1.903439
1.797511
1.688474
1.576591
1.462132
1.345370
1.226585
1.106060
0.984081
0.860938
0.736922
0.612328
0.487449
0.362581
0.238018
0.114055
-0.009016
-0.130904
-0.251322
-0.369984
-0.486611
-0.600925
-0.712656
-0.821540
-0.927316
-1.029734
-1.128549
-1.223527
-1.314441
-1.401073
-1.483216
-1.560674
-1.633261
-1.700801
-1.763134
-1.820107
-1.871582
-1.917429
-1.957532
-1.991779
-2.020057
-2.042245
-2.058197
-2.067770
-2.193582
-2.183554
-2.166846
-2.143600
-2.113967
-2.078071
-2.036028
-1.987954
-1.933973
2.714587
2.638512
2.557271
2.471066
2.380111
2.284630
2.184856
2.081035
1.973419
1.862270
1.747856
1.630453
1.510344
1.387816
1.263162
1.136680
1.008670
0.879436
0.749286
0.618526
0.487468
0.356419
0.225691
0.095592
-0.033570
-0.161491
-0.287868
-0.412401
-0.534796
-0.654764
-0.772018
-0.886281
-0.997282
-1.104756
-1.208447
-1.308107
-1.403499
-1.494396
-1.580578
-1.661841
-1.737989
-1.808838
-1.874219
-1.933973
-1.987954
-2.036028
-2.078071
-2.113967
-2.143600
-2.166846
-2.183554
-2.193582
-2.325834
-2.315328
-2.297823
-2.273467
-2.242409
-2.204779
-2.160697
-2.110283
-2.053668
2.824664
2.744849
2.659612
2.569165
2.473730
2.373544
2.268852
2.159909
2.046982
1.930344
1.810277
1.687071
1.561022
1.432433
1.301609
1.168865
1.034515
0.898879
0.762280
0.625040
0.487484
0.349939
0.212730
0.076181
-0.059385
-0.193647
-0.326287
-0.456992
-0.585451
-0.711361
-0.834421
-0.954340
-1.070832
-1.183620
-1.292436
-1.397018
-1.497119
-1.592497
-1.682926
-1.768188
-1.848079
-1.922406
-1.990991
-2.053668
-2.110283
-2.160697
-2.204779
-2.242409
-2.273467
-2.297823
-2.315328
-2.325834
-2.464844
-2.453835
-2.435494
-2.409969
-2.377414
-2.337962
-2.291737
-2.238865
-2.179481
2.940370
2.856623
2.767185
2.672278
2.572135
2.467004
2.357141
2.242815
2.124305
2.001897
1.875889
1.746583
1.614290
1.479329
1.342020
1.202693
1.061679
0.919314
0.775935
0.631883
0.487500
0.343126
0.199104
0.055776
-0.086521
-0.227449
-0.366673
-0.503865
-0.638698
-0.770853
-0.900016
-1.025879
-1.148143
-1.266517
-1.380719
-1.490475
-1.595524
-1.695614
-1.790505
-1.879971
-1.963796
-2.041779
-2.113732
-2.179481
-2.238865
-2.291737
-2.337962
-2.377414
-2.409969
-2.435494
-2.453835
-2.464844
-2.610946
-2.599409
-2.580190
-2.553438
-2.519310
-2.477942
-2.429464
-2.374008
-2.311714
3.061982
2.974103
2.880250
2.780655
2.675564
2.565234
2.449936
2.329952
2.205574
2.077102
1.944848
1.809131
1.670276
1.528617
1.384492
1.238247
1.090228
0.940790
0.790286
0.639074
0.487513
0.335962
0.184781
0.034326
-0.115045
-0.262978
-0.409122
-0.553132
-0.694664
-0.833384
-0.968960
-1.101071
-1.229402
-1.353647
-1.473509
-1.588703
-1.698953
-1.803994
-1.903576
-1.997460
-2.085419
-2.167244
-2.242737
-2.311714
-2.374008
-2.429464
-2.477942
-2.519310
-2.553438
-2.580190
-2.599409
-2.610946
-2.764494
-2.752402
-2.732259
-2.704217
-2.668436
-2.625056
-2.574211
-2.516039
-2.450687
3.189795
3.097573
2.999079
2.894557
2.784264
2.668472
2.547462
2.421531
2.290985
2.156140
2.017322
1.874866
1.729114
1.580416
1.429128
1.275611
1.120231
0.963359
0.805367
0.646630
0.487526
0.328432
0.169725
0.011781
-0.145024
-0.300320
-0.453737
-0.604912
-0.753485
-0.899103
-1.041420
-1.180097
-1.314804
-1.445219
-1.571031
-1.691939
-1.807654
-1.917899
-2.022410
-2.120937
-2.213242
-2.299104
-2.378316
-2.450687
-2.516039
-2.574211
-2.625056
-2.668436
-2.704217
-2.732259
-2.752402
-2.764494
-2.925858
-2.913183
-2.892069
-2.862672
-2.825153
-2.779658
-2.726326
-2.665300
-2.596734
3.324116
3.227329
3.123958
3.014258
2.898499
2.776965
2.649953
2.517772
2.380744
2.239201
2.093485
1.943947
1.790947
1.634851
1.476035
1.314876
1.151760
0.987075
0.821213
0.654568
0.487537
0.320516
0.153900
-0.011913
-0.176532
-0.339565
-0.500625
-0.659330
-0.815302
-0.968170
-1.117571
-1.263148
-1.404555
-1.541454
-1.673518
-1.800431
-1.921890
-2.037603
-2.147295
-2.250700
-2.347572
-2.437677
-2.520798
-2.596734
-2.665300