VARIABLES="X","Y","Z","p","rho","u","v","w"
ZONE T="Element0"
Nodes=2188, Elements=1026, ZONETYPE=FEBRICK
DATAPACKING=BLOCK
VARLOCATION = ([4,5,6,7,8] = CELLCENTERED)
-3.869569
-4.315403
-4.807479
-5.350546
-5.949841
-6.611145
-7.340839
-8.145960
-9.034275
-10.014353
-11.095648
-12.288589
-13.604685
-15.056630
-16.658430
-18.425537
-20.374994
-22.525610
-24.898125
-27.515427
-30.402761
-33.587978
-37.101807
-40.978138
-45.254368
-49.971737
-55.175755
-60.916615
-67.249702
-74.236099
-81.943192
-90.445335
-99.824539
-110.171265
-121.585327
-134.176819
-148.067215
-148.067215
-3.869569
-4.315403
-4.807479
-5.350546
-5.949841
-6.611145
-7.340839
-8.145960
-9.034275
-10.014353
-11.095648
-12.288589
-13.604685
-15.056630
-16.658430
-18.425537
-20.374994
-22.525610
-24.898125
-27.515427
-30.402761
-33.587978
-37.101807
-40.978138
-45.254368
-49.971737
-55.175755
-60.916615
-67.249702
-74.236099
-81.943192
-90.445335
-99.824539
-110.171265
-121.585327
-134.176819
-3.848172
-3.784137
-3.678725
-3.533308
-3.349387
-3.128760
-4.291860
-4.221408
-4.105368
-3.945214
-3.742588
-3.499469
-4.221408
-4.291860
-4.781569
-4.704034
-4.576265
-4.399845
-4.176575
-3.908631
-4.704034
-4.781569
-5.322021
-5.236671
-5.095957
-4.901587
-4.655534
-4.360193
-4.018413
-3.633482
-3.209098
-2.749331
-1.741575
-2.258591
-2.749331
-3.209098
-3.633482
-4.018413
-4.360193
-4.655534
-4.901587
-5.095957
-5.236671
-5.322021
-5.918432
-5.824457
-5.669458
-5.455280
-5.184085
-4.858511
-4.481698
-4.057271
-3.589309
-3.082302
-2.541113
-1.970927
-1.377204
-1.970927
-2.541113
-3.082302
-3.589309
-4.057271
-4.481698
-4.858511
-5.184085
-5.455280
-5.669458
-5.824457
-5.918432
-6.576554
-6.473062
-6.302301
-6.066265
-5.767327
-5.408391
-4.992921
-4.524912
-4.008862
-3.449727
-2.852870
-2.224014
-1.569182
-0.894642
-1.569182
-2.224014
-2.852870
-3.449727
-4.008862
-4.524912
-4.992921
-5.408391
-5.767327
-6.066265
-6.302301
-6.473062
-6.576554
-7.302736
-7.188743
-7.000589
-6.740435
-6.410885
-6.015139
-5.557013
-5.040915
-4.471806
-3.855151
-3.196870
-2.503275
-1.781015
2.012395
1.253660
0.487626
-0.278373
-1.037006
-1.781015
-2.503275
-3.196870
-3.855151
-4.471806
-5.040915
-5.557013
-6.015139
-6.410885
-6.740435
-7.000589
-7.188743
-7.302736
-8.103982
-7.978403
-7.771059
-7.484294
-7.120968
-6.684607
-6.179416
-5.610258
-4.982605
-4.302485
-3.576430
-2.811405
-2.014746
2.169483
1.332586
0.487630
-0.357292
-1.194088
-2.014746
-2.811405
-3.576430
-4.302485
-4.982605
-5.610258
-6.179416
-6.684607
-7.120968
-7.484294
-7.771059
-7.978403
-8.103982
-8.988023
-8.849659
-8.621142
-8.305017
-7.904426
-7.423252
-6.866134
-6.238433
-5.546185
-4.796044
-3.995212
-3.151376
-2.272631
2.342803
1.419667
0.487633
-0.444367
-1.367403
-2.272631
-3.151376
-3.995212
-4.796044
-5.546185
-6.238433
-6.866134
-7.423252
-7.904426
-8.305017
-8.621142
-8.849659
-8.988023
-9.963384
-9.810917
-9.559040
-9.210522
-8.768815
-8.238199
-7.623790
-6.931499
-6.167986
-5.340588
-4.457254
-3.526467
-2.557156
2.534025
1.515743
0.487636
-0.540438
-1.558622
-2.557156
-3.526467
-4.457254
-5.340588
-6.167986
-6.931499
-7.623790
-8.238199
-8.768815
-9.210522
-9.559040
-9.810917
-9.963384
-11.039474
-10.871448
-10.593799
-10.209541
-9.722473
-9.137310
-8.459693
-7.696142
-6.854002
-5.941370
-4.967015
-3.940295
-2.871067
2.744996
1.621740
0.487638
-0.646431
-1.769590
-2.871067
-3.940295
-4.967015
-5.941370
-6.854002
-7.696142
-8.459693
-9.137310
-9.722473
-10.209541
-10.593799
-10.871448
-11.039474
-12.226675
-12.041481
-11.735398
-11.311713
-10.774600
-10.129258
-9.381906
-8.539737
-7.610854
-6.604187
-5.529411
-4.396854
-3.217390
2.977750
1.738681
0.487639
-0.763369
-2.002342
-3.217390
-4.396854
-5.529411
-6.604187
-7.610854
-8.539737
-9.381906
-10.129258
-10.774600
-11.311713
-11.735398
-12.041481
-12.226675
-13.536438
-13.332304
-12.994853
-12.527669
-11.935345
-11.223610
-10.399324
-9.470422
-8.445839
-7.335429
-6.149868
-4.900547
-3.599467
3.234531
1.867694
0.487641
-0.892380
-2.259122
-3.599467
-4.900547
-6.149868
-7.335429
-8.445839
-9.470422
-10.399324
-11.223610
-11.935345
-12.527669
-12.994853
-13.332304
-13.536438
-14.981396
-14.756368
-14.384311
-13.869138
-13.215903
-12.430923
-11.521763
-10.497173
-9.367013
-8.142153
-6.834369
-5.456231
-4.020982
3.517818
2.010024
0.487642
-1.034708
-2.542408
-4.020982
-5.456231
-6.834369
-8.142153
-9.367013
-10.497173
-11.521763
-12.430923
-13.215903
-13.869138
-14.384311
-14.756368
-14.981396
-16.575487
-16.327408
-15.917173
-15.349059
-14.628628
-13.762844
-12.760049
-11.629896
-10.383263
-9.032138
-7.589517
-6.069269
-4.486003
3.830343
2.167043
0.487643
-1.191726
-2.854933
-4.486003
-6.069269
-7.589517
-9.032138
-10.383263
-11.629896
-12.760049
-13.762844
-14.628628
-15.349059
-15.917173
-16.327408
-16.575487
-18.334089
-18.060581
-17.608229
-16.981709
-16.187147
-15.232219
-14.126126
-12.879517
-11.504389
-10.013970
-8.422598
-6.745572
-4.999014
4.175120
2.340267
0.487644
-1.364948
-3.199710
-4.999014
-6.745572
-8.422598
-10.013970
-11.504389
-12.879517
-14.126126
-15.232219
-16.187147
-16.981709
-17.608229
-18.060581
-18.334089
-20.274166
-19.972605
-19.473787
-18.782835
-17.906492
-16.853222
-15.633172
-14.258089
-12.741207
-11.097120
-9.341646
-7.491665
-5.564965
4.555476
2.531366
0.487644
-1.556046
-3.580066
-5.564965
-7.491665
-9.341646
-11.097120
-12.741207
-14.258089
-15.633172
-16.853222
-17.906492
-18.782835
-19.473787
-19.972605
-20.274166
-22.414431
-22.081921
-21.531845
-20.769812
-19.803249
-18.641489
-17.295723
-15.778910
-14.105647
-12.292037
-10.355527
-8.314744
-6.189313
4.975079
2.742183
0.487645
-1.766863
-3.999670
-6.189313
-8.314744
-10.355527
-12.292037
-14.105647
-15.778910
-17.295723
-18.641489
-19.803249
-20.769812
-21.531845
-22.081921
-22.414431
-24.775528
-24.408876
-23.802254
-22.961805
-21.895716
-20.614271
-19.129818
-17.456650
-15.610870
-13.610245
-11.474021
-9.222749
-6.878083
5.437975
2.974752
0.487645
-1.999432
-4.462569
-6.878083
-9.222749
-11.474021
-13.610245
-15.610870
-17.456650
-19.129818
-20.614271
-21.895716
-22.961805
-23.802254
-24.408876
-24.775528
-27.380236
-26.975920
-26.306913
-25.379961
-24.204073
-22.790596
-21.153147
-19.307491
-17.271397
-15.064460
-12.707916
-10.224439
-7.637917
5.948633
3.231317
0.487646
-2.255997
-4.973228
-7.637917
-10.224439
-12.707916
-15.064460
-17.271397
-19.307491
-21.153147
-22.790596
-24.204073
-25.379961
-26.306913
-26.975920
-27.380236
-30.253674
-29.807808
-29.069986
-28.047604
-26.750589
-25.191458
-23.385227
-21.349289
-19.103245
-16.668711
-14.069116
-11.329474
-8.476144
6.511975
3.514352
0.487646
-2.539032
-5.536572
-8.476144
-11.329474
-14.069116
-16.668711
-19.103245
-21.349289
-23.385227
-25.191458
-26.750589
-28.047604
-29.069986
-29.807808
-30.253674
-33.423565
-32.931862
-32.118122
-30.990463
-29.559828
-27.840015
-25.847589
-23.601738
-21.124083
-18.438469
-15.570749
-12.548516
-9.400851
7.133437
3.826588
0.487646
-2.851268
-6.158037
-9.400851
-12.548516
-15.570749
-18.438469
-21.124083
-23.601738
-25.847589
-27.840015
-29.559828
-30.990463
-32.118122
-32.931862
-33.423565
-36.920483
-36.378216
-35.480724
-34.236931
-32.658886
-30.761814
-28.563986
-26.086565
-23.353403
-20.390810
-17.227303
-13.893323
-10.420958
7.819014
4.171036
0.487646
-3.195716
-6.843616
-10.420958
-13.893323
-17.227303
-20.390810
-23.353403
-26.086565
-28.563986
-30.761814
-32.658886
-34.236931
-35.480724
-36.378216
-36.920483
-40.778160
-40.180111
-39.190231
-37.818317
-36.077660
-33.985043
-31.560621
-28.827740
-25.812712
-22.544563
-19.054752
-15.376867
-11.546304
8.575317
4.551018
0.487646
-3.575700
-7.599923
-11.546304
-15.376867
-19.054752
-22.544563
-25.812712
-28.827740
-31.560621
-33.985043
-36.077660
-37.818317
-39.190231
-40.180111
-40.778160
-45.033810
-44.374222
-43.282421
-41.769173
-39.849125
-37.540787
-34.866398
-31.851702
-28.525732
-24.920506
-21.070728
-17.013458
-12.787744
9.409644
4.970201
0.487646
-3.994884
-8.434254
-12.787744
-17.013458
-21.070728
-24.920506
-28.525732
-31.851702
-34.866398
-37.540787
-39.849125
-41.769173
-43.282421
-44.374222
-45.033810
-49.728477
-49.001003
-47.796768
-46.127605
-44.009663
-41.463352
-38.513203
-35.187622
-31.518631
-27.541553
-23.294676
-18.818882
-14.157252
10.330041
5.432628
0.487647
-4.457311
-9.354655
-14.157252
-18.818882
-23.294676
-27.541553
-31.518631
-35.187622
-38.513203
-41.463352
-44.009663
-46.127605
-47.796768
-49.001003
-49.728477
-54.907452
-54.105091
-52.776817
-50.935657
-48.599400
-45.790569
-42.536217
-38.867680
-34.820278
-30.432991
-25.748049
-20.810556
-15.668041
11.345387
5.942759
0.487647
-4.967443
-10.370006
-15.668041
-20.810556
-25.748049
-30.432991
-34.820278
-38.867680
-42.536217
-45.790569
-48.599400
-50.935657
-52.776817
-54.105091
-54.907452
-60.620686
-59.735714
-58.270611
-56.239704
-53.662617
-50.564182
-46.974243
-42.927368
-38.462528
-33.622707
-28.454512
-23.007690
-17.334682
12.465476
6.505515
0.487647
-5.530200
-11.490100
-17.334682
-23.007690
-28.454512
-33.622707
-38.462528
-42.927368
-46.974243
-50.564182
-53.662617
-56.239704
-58.270611
-59.735714
-60.620686
-66.923294
-65.947182
-64.331139
-62.090916
-59.248150
-55.830238
-51.870090
-47.405853
-42.480503
-37.141476
-31.440168
-25.431479
-19.173254
13.701112
7.126324
0.487647
-6.151011
-12.725741
-19.173254
-25.431479
-31.440168
-37.141476
-42.480503
-47.405853
-51.870090
-55.830238
-59.248150
-62.090916
-64.331139
-65.947182
-66.923294
-73.876068
-72.799423
-71.016861
-68.545731
-65.409882
-61.639530
-57.270988
-52.346329
-46.912968
-41.023232
-34.733822
-28.105303
-21.201488
15.064214
7.811175
0.487647
-6.835863
-14.088851
-21.201488
-28.105303
-34.733822
-41.023232
-46.912968
-52.346329
-57.270988
-61.639530
-65.409882
-68.545731
-71.016861
-72.799423
-73.876068
-81.546074
-80.358521
-78.392265
-75.666405
-72.207237
-68.048096
-63.229031
-57.796455
-51.802677
-45.305420
-38.367241
-31.054951
-23.438951
16.567932
8.566673
0.487647
-7.591364
-15.592575
-23.438951
-31.054951
-38.367241
-45.305420
-51.802677
-57.796455
-63.229031
-68.048096
-72.207237
-75.666405
-78.392265
-80.358521
-81.546074
-90.007301
-88.697395
-86.528496
-83.521629
-79.705795
-75.117752
-69.801689
-63.808804
-57.196796
-50.029350
-42.375477
-34.308880
-25.907227
18.226768
9.400107
0.487647
-8.424800
-17.251419
-25.907227
-34.308880
-42.375477
-50.029350
-57.196796
-63.808804
-69.801689
-75.117752
-79.705795
-83.521629
-86.528496
-88.697395
-90.007301
-99.341370
-97.896492
-95.504044
-92.187180
-87.977882
-82.916702
-77.052368
-70.441368
-63.147358
-55.240589
-46.797188
-37.898472
-28.630121
20.056726
10.319516
0.487647
-9.344211
-19.081387
-28.630121
-37.898472
-46.797188
-55.240589
-63.147358
-70.441368
-77.052368
-82.916702
-87.977882
-92.187180
-95.504044
-97.896492
-99.341370
-109.638306
-108.044533
-105.405479
-101.746643
-97.103294
-91.520157
-85.051002
-77.758125
-69.711761
-60.989399
-51.675034
-41.858356
-31.633902
22.075457
11.333768
0.487647
-10.358465
-21.100126
-31.633902
-41.858356
-51.675034
-60.989399
-69.711761
-77.758125
-85.051002
-91.520157
-97.103294
-101.746643
-105.405479
-108.044533
-109.638306
-120.997437
-119.239410
-116.328308
-112.292229
-107.170052
-101.011124
-93.874748
-85.829659
-76.953331
-67.331238
-57.056057
-46.226730
-34.947540
24.302433
12.452647
0.487647
-11.477346
-23.327114
-34.947540
-46.226730
-57.056057
-67.331238
-76.953331
-85.829659
-93.874748
-101.011124
-107.170052
-112.292229
-116.328308
-119.239410
-120.997437
-133.528336
-131.589111
-128.377899
-123.925659
-118.275261
-111.481140
-103.608719
-94.733818
-84.941910
-74.327286
-62.992168
-51.045727
-38.603004
26.759134
13.686945
0.487647
-12.711648
-25.783829
-38.603004
-51.045727
-62.992168
-74.327286
-84.941910
-94.733818
-103.608719
-111.481140
-118.275261
-123.925659
-128.377899
-131.589111
-133.528336
-147.351883
-145.212769
-141.670487
-136.759140
-130.526047
-123.031204
-114.346809
-104.556503
-93.754555
-82.045013
-69.540627
-56.361835
-42.635551
29.469263
15.048570
0.487647
-14.073276
-28.493969
-42.635551
-56.361835
-69.540627
-82.045013
-93.754555
-104.556503
-114.346809
-123.031204
-130.526047
-136.759140
-141.670487
-145.212769
-147.351883
-147.351883
-145.212769
-141.670487
-136.759140
-130.526047
-123.031204
-114.346809
-104.556503
-93.754555
-82.045013
-69.540627
-56.361835
-42.635551
29.469263
15.048570
0.487647
-14.073276
-28.493969
-42.635551
-56.361835
-69.540627
-82.045013
-93.754555
-104.556503
-114.346809
-123.031204
-130.526047
-136.759140
-141.670487
-145.212769
-147.351883
-3.848172
-3.784137
-3.678725
-3.533308
-3.349387
-3.128760
-4.291860
-4.221408
-4.105368
-3.945214
-3.742588
-3.499469
-4.221408
-4.291860
-4.781569
-4.704034
-4.576265
-4.399845
-4.176575
-3.908631
-4.704034
-4.781569
-5.322021
-5.236671
-5.095957
-4.901587
-4.655534
-4.360193
-4.018413
-3.633482
-3.209098
-2.749331
-1.741575
-2.258591
-2.749331
-3.209098
-3.633482
-4.018413
-4.360193
-4.655534
-4.901587
-5.095957
-5.236671
-5.322021
-5.918432
-5.824457
-5.669458
-5.455280
-5.184085
-4.858511
-4.481698
-4.057271
-3.589309
-3.082302
-2.541113
-1.970927
-1.377204
-1.970927
-2.541113
-3.082302
-3.589309
-4.057271
-4.481698
-4.858511
-5.184085
-5.455280
-5.669458
-5.824457
-5.918432
-6.576554
-6.473062
-6.302301
-6.066265
-5.767327
-5.408391
-4.992921
-4.524912
-4.008862
-3.449727
-2.852870
-2.224014
-1.569182
-0.894642
-1.569182
-2.224014
-2.852870
-3.449727
-4.008862
-4.524912
-4.992921
-5.408391
-5.767327
-6.066265
-6.302301
-6.473062
-6.576554
-7.302736
-7.188743
-7.000589
-6.740435
-6.410885
-6.015139
-5.557013
-5.040915
-4.471806
-3.855151
-3.196870
-2.503275
-1.781015
2.012395
1.253660
0.487626
-0.278373
-1.037006
-1.781015
-2.503275
-3.196870
-3.855151
-4.471806
-5.040915
-5.557013
-6.015139
-6.410885
-6.740435
-7.000589
-7.188743
-7.302736
-8.103982
-7.978403
-7.771059
-7.484294
-7.120968
-6.684607
-6.179416
-5.610258
-4.982605
-4.302485
-3.576430
-2.811405
-2.014746
2.169483
1.332586
0.487630
-0.357292
-1.194088
-2.014746
-2.811405
-3.576430
-4.302485
-4.982605
-5.610258
-6.179416
-6.684607
-7.120968
-7.484294
-7.771059
-7.978403
-8.103982
-8.988023
-8.849659
-8.621142
-8.305017
-7.904426
-7.423252
-6.866134
-6.238433
-5.546185
-4.796044
-3.995212
-3.151376
-2.272631
2.342803
1.419667
0.487633
-0.444367
-1.367403
-2.272631
-3.151376
-3.995212
-4.796044
-5.546185
-6.238433
-6.866134
-7.423252
-7.904426
-8.305017
-8.621142
-8.849659
-8.988023
-9.963384
-9.810917
-9.559040
-9.210522
-8.768815
-8.238199
-7.623790
-6.931499
-6.167986
-5.340588
-4.457254
-3.526467
-2.557156
2.534025
1.515743
0.487636
-0.540438
-1.558622
-2.557156
-3.526467
-4.457254
-5.340588
-6.167986
-6.931499
-7.623790
-8.238199
-8.768815
-9.210522
-9.559040
-9.810917
-9.963384
-11.039474
-10.871448
-10.593799
-10.209541
-9.722473
-9.137310
-8.459693
-7.696142
-6.854002
-5.941370
-4.967015
-3.940295
-2.871067
2.744996
1.621740
0.487638
-0.646431
-1.769590
-2.871067
-3.940295
-4.967015
-5.941370
-6.854002
-7.696142
-8.459693
-9.137310
-9.722473
-10.209541
-10.593799
-10.871448
-11.039474
-12.226675
-12.041481
-11.735398
-11.311713
-10.774600
-10.129258
-9.381906
-8.539737
-7.610854
-6.604187
-5.529411
-4.396854
-3.217390
2.977750
1.738681
0.487639
-0.763369
-2.002342
-3.217390
-4.396854
-5.529411
-6.604187
-7.610854
-8.539737
-9.381906
-10.129258
-10.774600
-11.311713
-11.735398
-12.041481
-12.226675
-13.536438
-13.332304
-12.994853
-12.527669
-11.935345
-11.223610
-10.399324
-9.470422
-8.445839
-7.335429
-6.149868
-4.900547
-3.599467
3.234531
1.867694
0.487641
-0.892380
-2.259122
-3.599467
-4.900547
-6.149868
-7.335429
-8.445839
-9.470422
-10.399324
-11.223610
-11.935345
-12.527669
-12.994853
-13.332304
-13.536438
-14.981396
-14.756368
-14.384311
-13.869138
-13.215903
-12.430923
-11.521763
-10.497173
-9.367013
-8.142153
-6.834369
-5.456231
-4.020982
3.517818
2.010024
0.487642
-1.034708
-2.542408
-4.020982
-5.456231
-6.834369
-8.142153
-9.367013
-10.497173
-11.521763
-12.430923
-13.215903
-13.869138
-14.384311
-14.756368
-14.981396
-16.575487
-16.327408
-15.917173
-15.349059
-14.628628
-13.762844
-12.760049
-11.629896
-10.383263
-9.032138
-7.589517
-6.069269
-4.486003
3.830343
2.167043
0.487643
-1.191726
-2.854933
-4.486003
-6.069269
-7.589517
-9.032138
-10.383263
-11.629896
-12.760049
-13.762844
-14.628628
-15.349059
-15.917173
-16.327408
-16.575487
-18.334089
-18.060581
-17.608229
-16.981709
-16.187147
-15.232219
-14.126126
-12.879517
-11.504389
-10.013970
-8.422598
-6.745572
-4.999014
4.175120
2.340267
0.487644
-1.364948
-3.199710
-4.999014
-6.745572
-8.422598
-10.013970
-11.504389
-12.879517
-14.126126
-15.232219
-16.187147
-16.981709
-17.608229
-18.060581
-18.334089
-20.274166
-19.972605
-19.473787
-18.782835
-17.906492
-16.853222
-15.633172
-14.258089
-12.741207
-11.097120
-9.341646
-7.491665
-5.564965
4.555476
2.531366
0.487644
-1.556046
-3.580066
-5.564965
-7.491665
-9.341646
-11.097120
-12.741207
-14.258089
-15.633172
-16.853222
-17.906492
-18.782835
-19.473787
-19.972605
-20.274166
-22.414431
-22.081921
-21.531845
-20.769812
-19.803249
-18.641489
-17.295723
-15.778910
-14.105647
-12.292037
-10.355527
-8.314744
-6.189313
4.975079
2.742183
0.487645
-1.766863
-3.999670
-6.189313
-8.314744
-10.355527
-12.292037
-14.105647
-15.778910
-17.295723
-18.641489
-19.803249
-20.769812
-21.531845
-22.081921
-22.414431
-24.775528
-24.408876
-23.802254
-22.961805
-21.895716
-20.614271
-19.129818
-17.456650
-15.610870
-13.610245
-11.474021
-9.222749
-6.878083
5.437975
2.974752
0.487645
-1.999432
-4.462569
-6.878083
-9.222749
-11.474021
-13.610245
-15.610870
-17.456650
-19.129818
-20.614271
-21.895716
-22.961805
-23.802254
-24.408876
-24.775528
-27.380236
-26.975920
-26.306913
-25.379961
-24.204073
-22.790596
-21.153147
-19.307491
-17.271397
-15.064460
-12.707916
-10.224439
-7.637917
5.948633
3.231317
0.487646
-2.255997
-4.973228
-7.637917
-10.224439
-12.707916
-15.064460
-17.271397
-19.307491
-21.153147
-22.790596
-24.204073
-25.379961
-26.306913
-26.975920
-27.380236
-30.253674
-29.807808
-29.069986
-28.047604
-26.750589
-25.191458
-23.385227
-21.349289
-19.103245
-16.668711
-14.069116
-11.329474
-8.476144
6.511975
3.514352
0.487646
-2.539032
-5.536572
-8.476144
-11.329474
-14.069116
-16.668711
-19.103245
-21.349289
-23.385227
-25.191458
-26.750589
-28.047604
-29.069986
-29.807808
-30.253674
-33.423565
-32.931862
-32.118122
-30.990463
-29.559828
-27.840015
-25.847589
-23.601738
-21.124083
-18.438469
-15.570749
-12.548516
-9.400851
7.133437
3.826588
0.487646
-2.851268
-6.158037
-9.400851
-12.548516
-15.570749
-18.438469
-21.124083
-23.601738
-25.847589
-27.840015
-29.559828
-30.990463
-32.118122
-32.931862
-33.423565
-36.920483
-36.378216
-35.480724
-34.236931
-32.658886
-30.761814
-28.563986
-26.086565
-23.353403
-20.390810
-17.227303
-13.893323
-10.420958
7.819014
4.171036
0.487646
-3.195716
-6.843616
-10.420958
-13.893323
-17.227303
-20.390810
-23.353403
-26.086565
-28.563986
-30.761814
-32.658886
-34.236931
-35.480724
-36.378216
-36.920483
-40.778160
-40.180111
-39.190231
-37.818317
-36.077660
-33.985043
-31.560621
-28.827740
-25.812712
-22.544563
-19.054752
-15.376867
-11.546304
8.575317
4.551018
0.487646
-3.575700
-7.599923
-11.546304
-15.376867
-19.054752
-22.544563
-25.812712
-28.827740
-31.560621
-33.985043
-36.077660
-37.818317
-39.190231
-40.180111
-40.778160
-45.033810
-44.374222
-43.282421
-41.769173
-39.849125
-37.540787
-34.866398
-31.851702
-28.525732
-24.920506
-21.070728
-17.013458
-12.787744
9.409644
4.970201
0.487646
-3.994884
-8.434254
-12.787744
-17.013458
-21.070728
-24.920506
-28.525732
-31.851702
-34.866398
-37.540787
-39.849125
-41.769173
-43.282421
-44.374222
-45.033810
-49.728477
-49.001003
-47.796768
-46.127605
-44.009663
-41.463352
-38.513203
-35.187622
-31.518631
-27.541553
-23.294676
-18.818882
-14.157252
10.330041
5.432628
0.487647
-4.457311
-9.354655
-14.157252
-18.818882
-23.294676
-27.541553
-31.518631
-35.187622
-38.513203
-41.463352
-44.009663
-46.127605
-47.796768
-49.001003
-49.728477
-54.907452
-54.105091
-52.776817
-50.935657
-48.599400
-45.790569
-42.536217
-38.867680
-34.820278
-30.432991
-25.748049
-20.810556
-15.668041
11.345387
5.942759
0.487647
-4.967443
-10.370006
-15.668041
-20.810556
-25.748049
-30.432991
-34.820278
-38.867680
-42.536217
-45.790569
-48.599400
-50.935657
-52.776817
-54.105091
-54.907452
-60.620686
-59.735714
-58.270611
-56.239704
-53.662617
-50.564182
-46.974243
-42.927368
-38.462528
-33.622707
-28.454512
-23.007690
-17.334682
12.465476
6.505515
0.487647
-5.530200
-11.490100
-17.334682
-23.007690
-28.454512
-33.622707
-38.462528
-42.927368
-46.974243
-50.564182
-53.662617
-56.239704
-58.270611
-59.735714
-60.620686
-66.923294
-65.947182
-64.331139
-62.090916
-59.248150
-55.830238
-51.870090
-47.405853
-42.480503
-37.141476
-31.440168
-25.431479
-19.173254
13.701112
7.126324
0.487647
-6.151011
-12.725741
-19.173254
-25.431479
-31.440168
-37.141476
-42.480503
-47.405853
-51.870090
-55.830238
-59.248150
-62.090916
-64.331139
-65.947182
-66.923294
-73.876068
-72.799423
-71.016861
-68.545731
-65.409882
-61.639530
-57.270988
-52.346329
-46.912968
-41.023232
-34.733822
-28.105303
-21.201488
15.064214
7.811175
0.487647
-6.835863
-14.088851
-21.201488
-28.105303
-34.733822
-41.023232
-46.912968
-52.346329
-57.270988
-61.639530
-65.409882
-68.545731
-71.016861
-72.799423
-73.876068
-81.546074
-80.358521
-78.392265
-75.666405
-72.207237
-68.048096
-63.229031
-57.796455
-51.802677
-45.305420
-38.367241
-31.054951
-23.438951
16.567932
8.566673
0.487647
-7.591364
-15.592575
-23.438951
-31.054951
-38.367241
-45.305420
-51.802677
-57.796455
-63.229031
-68.048096
-72.207237
-75.666405
-78.392265
-80.358521
-81.546074
-90.007301
-88.697395
-86.528496
-83.521629
-79.705795
-75.117752
-69.801689
-63.808804
-57.196796
-50.029350
-42.375477
-34.308880
-25.907227
18.226768
9.400107
0.487647
-8.424800
-17.251419
-25.907227
-34.308880
-42.375477
-50.029350
-57.196796
-63.808804
-69.801689
-75.117752
-79.705795
-83.521629
-86.528496
-88.697395
-90.007301
-99.341370
-97.896492
-95.504044
-92.187180
-87.977882
-82.916702
-77.052368
-70.441368
-63.147358
-55.240589
-46.797188
-37.898472
-28.630121
20.056726
10.319516
0.487647
-9.344211
-19.081387
-28.630121
-37.898472
-46.797188
-55.240589
-63.147358
-70.441368
-77.052368
-82.916702
-87.977882
-92.187180
-95.504044
-97.896492
-99.341370
-109.638306
-108.044533
-105.405479
-101.746643
-97.103294
-91.520157
-85.051002
-77.758125
-69.711761
-60.989399
-51.675034
-41.858356
-31.633902
22.075457
11.333768
0.487647
-10.358465
-21.100126
-31.633902
-41.858356
-51.675034
-60.989399
-69.711761
-77.758125
-85.051002
-91.520157
-97.103294
-101.746643
-105.405479
-108.044533
-109.638306
-120.997437
-119.239410
-116.328308
-112.292229
-107.170052
-101.011124
-93.874748
-85.829659
-76.953331
-67.331238
-57.056057
-46.226730
-34.947540
24.302433
12.452647
0.487647
-11.477346
-23.327114
-34.947540
-46.226730
-57.056057
-67.331238
-76.953331
-85.829659
-93.874748
-101.011124
-107.170052
-112.292229
-116.328308
-119.239410
-120.997437
-133.528336
-131.589111
-128.377899
-123.925659
-118.275261
-111.481140
-103.608719
-94.733818
-84.941910
-74.327286
-62.992168
-51.045727
-38.603004
26.759134
13.686945
0.487647
-12.711648
-25.783829
-38.603004
-51.045727
-62.992168
-74.327286
-84.941910
-94.733818
-103.608719
-111.481140
-118.275261
-123.925659
-128.377899
-131.589111
-133.528336
0.000000
0.000000
0.000000
0.000000
0.000000
0.000000
0.000000
0.000000
0.000000
0.000000
0.000000
0.000000
0.000000
0.000000
0.000000
0.000000
0.000000
0.000000
0.000000
0.000000
0.000000
0.000000
0.000000
0.000000
0.000000
0.000000
0.000000
0.000000
0.000000
0.000000
0.000000
0.000000
0.000000
0.000000
0.000000
0.000000
0.000000
0.000000
0.000000
0.000000
0.000000
0.000000
0.000000
0.000000
0.000000
0.000000
0.000000
0.000000
0.000000
0.000000
0.000000
0.000000
0.000000
0.000000
0.000000
0.000000
0.000000
0.000000
0.000000
0.000000
0.000000
0.000000
0.000000
0.000000
0.000000
0.000000
0.000000
0.000000
0.000000
0.000000
0.000000
0.000000
0.000000
0.000000
0.424324
0.844300
1.255799
1.654905
2.037834
2.400948
0.468275
0.931780
1.385968
1.826510
2.249223
2.650086
-0.931780
-0.468275
0.516736
1.028237
1.529492
2.015721
2.482299
2.924785
-1.028237
-0.516736
0.570174
1.134599
1.687755
2.224363
2.739312
3.227694
3.684853
4.106431
4.488414
4.827163
-5.362519
-5.119457
-4.827163
-4.488414
-4.106431
-3.684853
-3.227694
-2.739312
-2.224363
-1.687755
-1.134599
-0.570174
0.629104
1.251892
1.862284
2.454448
3.022738
3.561733
4.066289
4.531592
4.953204
5.327106
5.649740
5.918035
6.129439
-5.918035
-5.649740
-5.327106
-4.953204
-4.531592
-4.066289
-3.561733
-3.022738
-2.454448
-1.862284
-1.251892
-0.629104
0.694094
1.381248
2.054762
2.708196
3.335314
3.930126
4.486953
5.000476
5.465794
5.878465
6.234557
6.530678
6.764009
-6.932330
-6.764009
-6.530678
-6.234557
-5.878465
-5.465794
-5.000476
-4.486953
-3.930126
-3.335314
-2.708196
-2.054762
-1.381248
-0.694094
0.765772
1.523916
2.267046
2.988054
3.680052
4.336426
4.950902
5.517608
6.031126
6.486556
6.879550
7.206360
7.463872
-7.650288
-7.762210
-7.799521
-7.761874
-7.649634
-7.463872
-7.206360
-6.879550
-6.486556
-6.031126
-5.517608
-4.950902
-4.336426
-3.680052
-2.988054
-2.267046
-1.523916
-0.765772
0.844829
1.681269
2.501184
3.296722
4.060279
4.784552
5.462612
6.087974
6.654656
7.157245
7.590938
7.951597
8.235781
-8.441431
-8.564970
-8.606166
-8.564635
-8.440779
-8.235781
-7.951597
-7.590938
-7.157245
-6.654656
-6.087974
-5.462612
-4.784552
-4.060279
-3.296722
-2.501184
-1.681269
-0.844829
0.932027
1.854828
2.759433
3.637177
4.479662
5.278826
6.027018
6.717076
7.342397
7.897001
8.375586
8.773579
9.087179
-9.314044
-9.450397
-9.495878
-9.450063
-9.313394
-9.087179
-8.773579
-8.375586
-7.897001
-7.342397
-6.717076
-6.027018
-5.278826
-4.479662
-3.637177
-2.759433
-1.854828
-0.932027
1.028208
2.046264
3.044285
4.012702
4.942247
5.824016
6.649564
7.410983
8.100983
8.712960
9.241059
9.680232
10.026280
-10.276546
-10.427032
-10.477240
-10.426699
-10.275898
-10.026280
-9.680232
-9.241059
-8.712960
-8.100983
-7.410983
-6.649564
-5.824016
-4.942247
-4.012702
-3.044285
-2.046264
-1.028208
1.134299
2.257426
3.358487
4.426921
5.452495
6.425381
7.336255
8.176388
8.937732
9.612993
10.195710
10.680305
11.062143
-11.338219
-11.504294
-11.559716
-11.503963
-11.337575
-11.062143
-10.680305
-10.195710
-9.612993
-8.937732
-8.176388
-7.336255
-6.425381
-5.452495
-4.426921
-3.358487
-2.257426
-1.134299
1.251323
2.490351
3.705070
4.883829
6.015328
7.088721
8.093716
9.020675
9.860713
10.605783
11.248744
11.783442
12.204761
-12.509304
-12.692576
-12.753750
-12.692248
-12.508665
-12.204761
-11.783442
-11.248744
-10.605783
-9.860713
-9.020675
-8.093716
-7.088721
-6.015328
-4.883829
-3.705070
-2.490351
-1.251323
1.380410
2.747284
4.087378
5.387833
6.636176
7.820436
8.929252
9.951986
10.878832
11.700903
12.410319
13.000286
13.465152
-13.801100
-14.003341
-14.070859
-14.003016
-13.800466
-13.465152
-13.000286
-12.410319
-11.700903
-10.878832
-9.951986
-8.929252
-7.820436
-6.636176
-5.387833
-4.087378
-2.747284
-1.380410
1.522804
3.030704
4.509098
5.943794
7.321027
8.627584
9.850923
10.979306
12.001908
12.908918
13.691642
14.342574
14.855476
-15.226065
-15.449230
-15.523746
-15.448908
-15.225437
-14.855476
-14.342574
-13.691642
-12.908918
-12.001908
-10.979306
-9.850923
-8.627584
-7.321027
-5.943794
-4.509098
-3.030704
-1.522804
1.679880
3.343345
4.974298
6.557075
8.076488
9.517948
10.867620
12.112544
13.240774
14.241483
15.105069
15.823253
16.389145
-16.797945
-17.044193
-17.126429
-17.043875
-16.797323
-16.389145
-15.823253
-15.105069
-14.241483
-13.240774
-12.112544
-10.867620
-9.517948
-8.076488
-6.557075
-4.974298
-3.343345
-1.679880
1.853152
3.688223
5.487465
7.233593
8.909843
10.500119
11.989149
13.362632
14.607382
15.711449
16.664238
17.456606
18.080952
-18.531904
-18.803614
-18.894365
-18.803299
-18.531290
-18.080952
-17.456606
-16.664238
-15.711449
-14.607382
-13.362632
-11.989149
-10.500119
-8.909843
-7.233593
-5.487465
-3.688223
-1.853152
2.044291
4.068665
6.053550
7.979873
9.829135
11.583571
13.226329
14.741628
16.114912
17.332996
18.384184
19.258389
19.947216
-20.444664
-20.744463
-20.844608
-20.744152
-20.444061
-19.947216
-19.258389
-18.384184
-17.332996
-16.114912
-14.741628
-13.226329
-11.583571
-9.829135
-7.979873
-6.053550
-4.068665
-2.044291
2.255142
4.488339
6.678012
8.803114
10.843228
12.778755
14.591094
16.262833
17.777908
19.121767
20.281502
21.245979
22.005939
-22.554680
-22.885462
-22.995972
-22.885157
-22.554087
-22.005939
-21.245979
-20.281502
-19.121767
-17.777908
-16.262833
-14.591094
-12.778755
-10.843228
-8.803114
-6.678012
-4.488339
-2.255142
2.487738
4.951296
7.366876
9.711255
11.961906
14.097198
16.096609
17.940920
19.612408
21.095015
22.374493
23.438553
24.276979
-24.882303
-25.247265
-25.369207
-25.246965
-24.881720
-24.276979
-23.438553
-22.374493
-21.095015
-19.612408
-17.940920
-16.096609
-14.097198
-11.961906
-9.711255
-7.366876
-4.951296
-2.487738
2.744323
5.461999
8.126785
10.713058
13.195960
15.551620
17.757395
19.792078
21.636112
23.271772
24.683342
25.857258
26.782246
-27.449986
-27.852653
-27.987206
-27.852360
-27.449415
-26.782246
-25.857258
-24.683342
-23.271772
-21.636112
-19.792078
-17.757395
-15.551620
-13.195960
-10.713058
-8.126785
-5.461999
-2.744323
3.027372
6.025376
8.965072
11.818187
14.557292
17.156050
19.589472
21.834162
23.868536
25.673038
27.230324
28.525427
29.545900
-30.282497
-30.726757
-30.875221
-30.726471
-30.281939
-29.545900
-28.525427
-27.230324
-25.673038
-23.868536
-21.834162
-19.589472
-17.156050
-14.557292
-11.818187
-8.965072
-6.025376
-3.027372
3.339614
6.646860
9.889820
13.037300
16.059034
18.925962
21.610514
24.086870
26.331219
28.321978
30.040007
31.468794
32.594604
-33.407158
-33.897301
-34.061111
-33.897022
-33.406612
-32.594604
-31.468794
-30.040007
-28.321978
-26.331219
-24.086870
-21.610514
-18.925962
-16.059034
-13.037300
-9.889820
-6.646860
-3.339614
3.684063
7.332447
10.909950
14.382157
17.715672
20.878431
23.840014
26.571932
29.047911
31.244137
33.139492