VARIABLES="X","Y","Z","p","rho","u","v","w"
ZONE T="Element0"
Nodes=2174, Elements=1021, ZONETYPE=FEBRICK
DATAPACKING=BLOCK
VARLOCATION = ([4,5,6,7,8] = CELLCENTERED)
6.160180
5.834974
5.458308
5.033859
4.565754
2.544726
3.199768
3.828862
4.425960
4.985305
5.501493
5.969523
6.384845
6.743412
7.041719
7.276842
7.446467
7.548923
7.583190
7.548923
7.446467
7.276842
7.041719
6.743412
6.384845
5.969523
5.501493
4.985305
4.425960
3.828862
3.199768
2.544726
1.870023
-1.781015
-1.037006
-0.278373
0.487626
1.253660
2.012395
2.756565
3.479033
4.172863
4.831383
5.448245
6.017490
6.533607
6.991584
7.386962
7.715883
7.975126
8.162149
8.275110
8.312891
8.275110
8.162149
7.975126
7.715883
7.386962
6.991584
6.533607
6.017490
5.448245
4.831383
4.172863
3.479033
2.756565
2.012395
-2.014746
-1.194088
-0.357292
0.487630
1.332586
2.169483
2.990301
3.787165
4.552423
5.278714
5.959038
6.586826
7.156002
7.661042
8.097037
8.459736
8.745595
8.951814
9.076366
9.118023
9.076366
8.951814
8.745595
8.459736
8.097037
7.661042
7.156002
6.586826
5.959038
5.278714
4.552423
3.787165
2.990301
2.169483
-2.272631
-1.367403
-0.444367
0.487633
1.419667
2.342803
3.248189
4.127137
4.971204
5.772269
6.522614
7.214993
7.842710
8.399678
8.880486
9.280455
9.595678
9.823076
9.960419
10.006352
9.960419
9.823076
9.595678
9.280455
8.880486
8.399678
7.842710
7.214993
6.522614
5.772269
4.971204
4.127137
3.248189
2.342803
-2.557156
-1.558622
-0.540438
0.487636
1.515743
2.534025
3.532716
4.502228
5.433245
6.316809
7.144407
7.908051
8.600356
9.214616
9.744867
10.185954
10.533577
10.784342
10.935795
10.986447
10.935795
10.784342
10.533577
10.185954
9.744867
9.214616
8.600356
7.908051
7.144407
6.316809
5.433245
4.502228
3.532716
2.534025
-2.871067
-1.769590
-0.646431
0.487638
1.621740
2.744996
3.846628
4.916056
5.943003
6.917586
7.830416
8.672684
9.436249
10.113717
10.698518
11.184970
11.568337
11.844884
12.011905
12.067763
12.011905
11.844884
11.568337
11.184970
10.698518
10.113717
9.436249
8.672684
7.830416
6.917586
5.943003
4.916056
3.846628
2.744996
-3.217390
-2.002342
-0.763369
0.487639
1.738681
2.977750
4.192951
5.372613
6.505394
7.580395
8.587257
9.516268
10.358450
11.105654
11.750637
12.287138
12.709942
13.014930
13.199127
13.260729
13.199127
13.014930
12.709942
12.287138
11.750637
11.105654
10.358450
9.516268
8.587257
7.580395
6.505394
5.372613
4.192951
2.977750
-3.599467
-2.259122
-0.892380
0.487641
1.867694
3.234531
4.575027
5.876303
7.125845
8.311630
9.422233
10.446940
11.375856
12.199994
12.911373
13.503091
13.969401
14.305769
14.508914
14.576853
14.508914
14.305769
13.969401
13.503091
12.911373
12.199994
11.375856
10.446940
9.422233
8.311630
7.125845
5.876303
4.575027
3.234531
-4.020982
-2.542408
-1.034708
0.487642
2.010024
3.517818
4.996542
6.431984
7.810340
9.118344
10.343396
11.473680
12.498281
13.407295
14.191922
14.844557
15.358865
15.729850
15.953900
16.028830
15.953900
15.729850
15.358865
14.844557
14.191922
13.407295
12.498281
11.473680
10.343396
9.118344
7.810340
6.431984
4.996542
3.517818
-4.486003
-2.854933
-1.191726
0.487643
2.167043
3.830343
5.461561
7.045017
8.565482
10.008320
11.359632
12.606388
13.736552
14.739202
15.604637
16.324476
16.891735
17.300911
17.548023
17.630665
17.548023
17.300911
16.891735
16.324476
15.604637
14.739202
13.736552
12.606388
11.359632
10.008320
8.565482
7.045017
5.461561
3.830343
-4.999014
-3.199710
-1.364948
0.487644
2.340267
4.175120
5.974570
7.721315
9.398554
10.990141
12.480744
13.855992
15.102612
16.208561
17.163145
17.957123
18.582800
19.034107
19.306662
19.397812
19.306662
19.034107
18.582800
17.957123
17.163145
16.208561
15.102612
13.855992
12.480744
10.990141
9.398554
7.721315
5.974570
4.175120
-5.564965
-3.580066
-1.556046
0.487644
2.531366
4.555476
6.540517
8.467402
10.317593
12.073278
13.717546
15.234547
16.609640
17.829548
18.882479
19.758245
20.448368
20.946156
21.246778
21.347313
21.246778
20.946156
20.448368
19.758245
18.882479
17.829548
16.609640
15.234547
13.717546
12.073278
10.317593
8.467402
6.540517
4.555476
-6.189313
-3.999670
-1.766863
0.487645
2.742183
4.975079
7.164863
9.290475
11.331463
13.268180
15.081969
16.755348
18.272171
19.617798
20.779224
21.745220
22.506437
23.055500
23.387087
23.497976
23.387087
23.055500
22.506437
21.745220
20.779224
19.617798
18.272171
16.755348
15.081969
13.268180
11.331463
9.290475
7.164863
4.975079
-6.878083
-4.462569
-1.999432
0.487645
2.974752
5.437975
7.853628
10.198472
12.449945
14.586372
16.587173
18.433065
20.106245
21.590561
22.871677
23.937212
24.776857
25.382488
25.748234
25.870546
25.748234
25.382488
24.776857
23.937212
22.871677
21.590561
20.106245
18.433065
16.587173
14.586372
12.449945
10.198472
7.853628
5.437975
-7.637917
-4.973228
-2.255997
0.487646
3.231317
5.948633
8.613457
11.200152
13.683827
16.040569
18.247679
20.283884
22.129549
23.766865
25.180021
26.355364
27.281532
27.949566
28.352995
28.487907
28.352995
27.949566
27.281532
26.355364
25.180021
23.766865
22.129549
20.283884
18.247679
16.040569
13.683827
11.200152
8.613457
5.948633
-8.476144
-5.536572
-2.539032
0.487646
3.514352
6.511975
9.451679
12.305179
15.045012
17.644800
20.079502
22.325655
24.361603
26.167702
27.726521
29.023003
30.044621
30.781494
31.226494
31.375309
31.226494
30.781494
30.044621
29.023003
27.726521
26.167702
24.361603
22.325655
20.079502
17.644800
15.045012
12.305179
9.451679
6.511975
-9.400851
-6.158037
-2.851268
0.487646
3.826588
7.133437
10.376380
13.524210
16.546631
19.414539
22.100315
24.578075
26.823936
28.816233
30.535742
31.965860
33.092773
33.905590
34.396450
34.560604
34.396450
33.905590
33.092773
31.965860
30.535742
28.816233
26.823936
24.578075
22.100315
19.414539
16.546631
13.524210
10.376380
7.133437
-10.420958
-6.843616
-3.195716
0.487646
4.171036
7.819014
11.396480
14.869005
18.203165
21.366856
24.329607
27.062870
29.540300
31.738005
33.634781
35.212322
36.455395
37.351990
37.893444
38.074512
37.893444
37.351990
36.455395
35.212322
33.634781
31.738005
29.540300
27.062870
24.329607
21.366856
18.203165
14.869005
11.396480
7.819014
-11.546304
-7.599923
-3.575700
0.487646
4.551018
8.575317
12.521817
16.352535
20.030596
23.520584
26.788885
29.804010
32.536900
34.961201
37.053535
38.793709
40.164925
41.153938
41.751202
41.950935
41.751202
41.153938
40.164925
38.793709
37.053535
34.961201
32.536900
29.804010
26.788885
23.520584
20.030596
16.352535
12.521817
8.575317
-12.787744
-8.434254
-3.994884
0.487646
4.970201
9.409644
13.763248
17.989111
22.046551
25.896496
29.501869
32.827934
35.842636
38.516914
40.824974
42.744556
44.257137
45.348110
46.006939
46.227261
46.006939
45.348110
44.257137
42.744556
40.824974
38.516914
35.842636
32.827934
29.501869
25.896496
22.046551
17.989111
13.763248
9.409644
-14.157252
-9.354655
-4.457311
0.487647
5.432628
10.330041
15.132749
19.794519
24.270473
28.517511
32.494728
36.163811
39.489399
42.439438
44.985485
47.102985
48.771511
49.974957
50.701706
50.944740
50.701706
49.974957
48.771511
47.102985
44.985485
42.439438
39.489399
36.163811
32.494728
28.517511
24.270473
19.794519
15.132749
10.330041
-15.668041
-10.370006
-4.967443
0.487647
5.942759
11.345387
16.643526
21.786175
26.723820
31.408915
35.796337
39.843819
43.512363
46.766613
49.575199
51.911034
53.751591
55.079113
55.880791
56.148880
55.880791
55.079113
53.751591
51.911034
49.575199
46.766613
43.512363
39.843819
35.796337
31.408915
26.723820
21.786175
16.643526
11.345387
-17.334682
-11.490100
-5.530200
0.487647
6.505515
12.465476
18.310156
23.983290
29.430252
34.598595
39.438534
43.903458
47.950336
51.540180
54.638382
57.215076
59.245415
60.709812
61.594147
61.889877
61.594147
60.709812
59.245415
57.215076
54.638382
51.540180
47.950336
43.903458
39.438534
34.598595
29.430252
23.983290
18.310156
12.465476
-19.173254
-12.725741
-6.151011
0.487647
7.126324
13.701112
20.148714
26.407057
32.415878
38.117317
43.456459
48.381882
52.846130
56.806183
60.223885
63.066280
65.305977
66.921371
67.896889
68.223106
67.896889
66.921371
65.305977
63.066280
60.223885
56.806183
52.846130
48.381882
43.456459
38.117317
32.415878
26.407057
20.148714
13.701112
-21.201488
-14.088851
-6.835863
0.487647
7.811175
15.064214
22.176935
29.080854
35.709496
41.999023
47.888870
53.322296
58.246963
62.615421
66.385574
69.521088
71.991737
73.773705
74.849808
75.209663
74.849808
73.773705
71.991737
69.521088
66.385574
62.615421
58.246963
53.322296
47.888870
41.999023
35.709496
29.080854
22.176935
15.064214
-23.438951
-15.592575
-7.591364
0.487647
8.566673
16.567932
24.414383
32.030476
39.342876
46.281162
52.778515
58.772350
64.204933
69.023926
73.182892
76.641754
79.367188
81.332909
82.519981
82.916946
82.519981
81.332909
79.367188
76.641754
73.182892
69.023926
64.204933
58.772350
52.778515
46.281162
39.342876
32.030476
24.414383
16.567932
-25.907227
-17.251419
-8.424800
0.487647
9.400107
18.226768
26.882639
35.284374
43.351067
51.005035
58.172565
64.784622
70.777512
76.093513
80.681404
84.496979
87.503471
89.671906
90.981384
91.419289
90.981384
89.671906
87.503471
84.496979
80.681404
76.093513
70.777512
64.784622
58.172565
51.005035
43.351067
35.284374
26.882639
18.226768
-28.630121
-19.081387
-9.344211
0.487647
10.319516
20.056726
29.605515
38.873936
47.772732
56.216209
64.123047
71.417099
78.028107
83.892380
88.953438
93.162521
96.479065
98.871124
100.315643
100.798706
100.315643
98.871124
96.479065
93.162521
88.953438
83.892380
78.028107
71.417099
64.123047
56.216209
47.772732
38.873936
29.605515
20.056726
-31.633902
-21.100126
-10.358465
0.487647
11.333768
22.075457
32.609272
42.833782
52.650520
61.964951
70.687370
78.733765
86.026642
92.495758
98.078796
102.721970
106.380562
109.019310
110.612801
111.145676
110.612801
109.019310
106.380562
102.721970
98.078796
92.495758
86.026642
78.733765
70.687370
61.964951
52.650520
42.833782
32.609272
22.075457
-34.947540
-23.327114
-11.477346
0.487647
12.452647
24.302433
35.922890
47.202114
58.031487
68.306717
77.928841
86.805191
94.850288
101.986626
108.145493
113.267548
117.303459
120.214348
121.972176
122.560005
121.972176
120.214348
117.303459
113.267548
108.145493
101.986626
94.850288
86.805191
77.928841
68.306717
58.031487
47.202114
35.922890
24.302433
-38.603004
-25.783829
-12.711648
0.487647
13.686945
26.759134
39.578327
52.021069
63.967533
75.302673
85.917313
95.709236
104.584145
112.456543
119.250633
124.900963
129.353119
132.564224
134.503342
135.151794
134.503342
132.564224
129.353119
124.900963
119.250633
112.456543
104.584145
95.709236
85.917313
75.302673
63.967533
52.021069
39.578327
26.759134
-42.635551
-28.493969
-14.073276
0.487647
15.048570
29.469263
43.610847
57.337131
70.515923
83.020302
94.729851
105.531792
115.322105
124.006500
131.501343
137.734436
142.645782
146.188065
148.327179
149.042511
148.327179
146.188065
142.645782
137.734436
131.501343
124.006500
115.322105
105.531792
94.729851
83.020302
70.515923
57.337131
43.610847
29.469263
-42.635551
-28.493969
-14.073276
0.487647
15.048570
29.469263
43.610847
57.337131
70.515923
83.020302
94.729851
105.531792
115.322105
124.006500
131.501343
137.734436
142.645782
146.188065
148.327179
149.042511
148.327179
146.188065
142.645782
137.734436
131.501343
124.006500
115.322105
105.531792
94.729851
83.020302
70.515923
57.337131
43.610847
29.469263
6.160180
5.834974
5.458308
5.033859
4.565754
2.544726
3.199768
3.828862
4.425960
4.985305
5.501493
5.969523
6.384845
6.743412
7.041719
7.276842
7.446467
7.548923
7.583190
7.548923
7.446467
7.276842
7.041719
6.743412
6.384845
5.969523
5.501493
4.985305
4.425960
3.828862
3.199768
2.544726
1.870023
-1.781015
-1.037006
-0.278373
0.487626
1.253660
2.012395
2.756565
3.479033
4.172863
4.831383
5.448245
6.017490
6.533607
6.991584
7.386962
7.715883
7.975126
8.162149
8.275110
8.312891
8.275110
8.162149
7.975126
7.715883
7.386962
6.991584
6.533607
6.017490
5.448245
4.831383
4.172863
3.479033
2.756565
2.012395
-2.014746
-1.194088
-0.357292
0.487630
1.332586
2.169483
2.990301
3.787165
4.552423
5.278714
5.959038
6.586826
7.156002
7.661042
8.097037
8.459736
8.745595
8.951814
9.076366
9.118023
9.076366
8.951814
8.745595
8.459736
8.097037
7.661042
7.156002
6.586826
5.959038
5.278714
4.552423
3.787165
2.990301
2.169483
-2.272631
-1.367403
-0.444367
0.487633
1.419667
2.342803
3.248189
4.127137
4.971204
5.772269
6.522614
7.214993
7.842710
8.399678
8.880486
9.280455
9.595678
9.823076
9.960419
10.006352
9.960419
9.823076
9.595678
9.280455
8.880486
8.399678
7.842710
7.214993
6.522614
5.772269
4.971204
4.127137
3.248189
2.342803
-2.557156
-1.558622
-0.540438
0.487636
1.515743
2.534025
3.532716
4.502228
5.433245
6.316809
7.144407
7.908051
8.600356
9.214616
9.744867
10.185954
10.533577
10.784342
10.935795
10.986447
10.935795
10.784342
10.533577
10.185954
9.744867
9.214616
8.600356
7.908051
7.144407
6.316809
5.433245
4.502228
3.532716
2.534025
-2.871067
-1.769590
-0.646431
0.487638
1.621740
2.744996
3.846628
4.916056
5.943003
6.917586
7.830416
8.672684
9.436249
10.113717
10.698518
11.184970
11.568337
11.844884
12.011905
12.067763
12.011905
11.844884
11.568337
11.184970
10.698518
10.113717
9.436249
8.672684
7.830416
6.917586
5.943003
4.916056
3.846628
2.744996
-3.217390
-2.002342
-0.763369
0.487639
1.738681
2.977750
4.192951
5.372613
6.505394
7.580395
8.587257
9.516268
10.358450
11.105654
11.750637
12.287138
12.709942
13.014930
13.199127
13.260729
13.199127
13.014930
12.709942
12.287138
11.750637
11.105654
10.358450
9.516268
8.587257
7.580395
6.505394
5.372613
4.192951
2.977750
-3.599467
-2.259122
-0.892380
0.487641
1.867694
3.234531
4.575027
5.876303
7.125845
8.311630
9.422233
10.446940
11.375856
12.199994
12.911373
13.503091
13.969401
14.305769
14.508914
14.576853
14.508914
14.305769
13.969401
13.503091
12.911373
12.199994
11.375856
10.446940
9.422233
8.311630
7.125845
5.876303
4.575027
3.234531
-4.020982
-2.542408
-1.034708
0.487642
2.010024
3.517818
4.996542
6.431984
7.810340
9.118344
10.343396
11.473680
12.498281
13.407295
14.191922
14.844557
15.358865
15.729850
15.953900
16.028830
15.953900
15.729850
15.358865
14.844557
14.191922
13.407295
12.498281
11.473680
10.343396
9.118344
7.810340
6.431984
4.996542
3.517818
-4.486003
-2.854933
-1.191726
0.487643
2.167043
3.830343
5.461561
7.045017
8.565482
10.008320
11.359632
12.606388
13.736552
14.739202
15.604637
16.324476
16.891735
17.300911
17.548023
17.630665
17.548023
17.300911
16.891735
16.324476
15.604637
14.739202
13.736552
12.606388
11.359632
10.008320
8.565482
7.045017
5.461561
3.830343
-4.999014
-3.199710
-1.364948
0.487644
2.340267
4.175120
5.974570
7.721315
9.398554
10.990141
12.480744
13.855992
15.102612
16.208561
17.163145
17.957123
18.582800
19.034107
19.306662
19.397812
19.306662
19.034107
18.582800
17.957123
17.163145
16.208561
15.102612
13.855992
12.480744
10.990141
9.398554
7.721315
5.974570
4.175120
-5.564965
-3.580066
-1.556046
0.487644
2.531366
4.555476
6.540517
8.467402
10.317593
12.073278
13.717546
15.234547
16.609640
17.829548
18.882479
19.758245
20.448368
20.946156
21.246778
21.347313
21.246778
20.946156
20.448368
19.758245
18.882479
17.829548
16.609640
15.234547
13.717546
12.073278
10.317593
8.467402
6.540517
4.555476
-6.189313
-3.999670
-1.766863
0.487645
2.742183
4.975079
7.164863
9.290475
11.331463
13.268180
15.081969
16.755348
18.272171
19.617798
20.779224
21.745220
22.506437
23.055500
23.387087
23.497976
23.387087
23.055500
22.506437
21.745220
20.779224
19.617798
18.272171
16.755348
15.081969
13.268180
11.331463
9.290475
7.164863
4.975079
-6.878083
-4.462569
-1.999432
0.487645
2.974752
5.437975
7.853628
10.198472
12.449945
14.586372
16.587173
18.433065
20.106245
21.590561
22.871677
23.937212
24.776857
25.382488
25.748234
25.870546
25.748234
25.382488
24.776857
23.937212
22.871677
21.590561
20.106245
18.433065
16.587173
14.586372
12.449945
10.198472
7.853628
5.437975
-7.637917
-4.973228
-2.255997
0.487646
3.231317
5.948633
8.613457
11.200152
13.683827
16.040569
18.247679
20.283884
22.129549
23.766865
25.180021
26.355364
27.281532
27.949566
28.352995
28.487907
28.352995
27.949566
27.281532
26.355364
25.180021
23.766865
22.129549
20.283884
18.247679
16.040569
13.683827
11.200152
8.613457
5.948633
-8.476144
-5.536572
-2.539032
0.487646
3.514352
6.511975
9.451679
12.305179
15.045012
17.644800
20.079502
22.325655
24.361603
26.167702
27.726521
29.023003
30.044621
30.781494
31.226494
31.375309
31.226494
30.781494
30.044621
29.023003
27.726521
26.167702
24.361603
22.325655
20.079502
17.644800
15.045012
12.305179
9.451679
6.511975
-9.400851
-6.158037
-2.851268
0.487646
3.826588
7.133437
10.376380
13.524210
16.546631
19.414539
22.100315
24.578075
26.823936
28.816233
30.535742
31.965860
33.092773
33.905590
34.396450
34.560604
34.396450
33.905590
33.092773
31.965860
30.535742
28.816233
26.823936
24.578075
22.100315
19.414539
16.546631
13.524210
10.376380
7.133437
-10.420958
-6.843616
-3.195716
0.487646
4.171036
7.819014
11.396480
14.869005
18.203165
21.366856
24.329607
27.062870
29.540300
31.738005
33.634781
35.212322
36.455395
37.351990
37.893444
38.074512
37.893444
37.351990
36.455395
35.212322
33.634781
31.738005
29.540300
27.062870
24.329607
21.366856
18.203165
14.869005
11.396480
7.819014
-11.546304
-7.599923
-3.575700
0.487646
4.551018
8.575317
12.521817
16.352535
20.030596
23.520584
26.788885
29.804010
32.536900
34.961201
37.053535
38.793709
40.164925
41.153938
41.751202
41.950935
41.751202
41.153938
40.164925
38.793709
37.053535
34.961201
32.536900
29.804010
26.788885
23.520584
20.030596
16.352535
12.521817
8.575317
-12.787744
-8.434254
-3.994884
0.487646
4.970201
9.409644
13.763248
17.989111
22.046551
25.896496
29.501869
32.827934
35.842636
38.516914
40.824974
42.744556
44.257137
45.348110
46.006939
46.227261
46.006939
45.348110
44.257137
42.744556
40.824974
38.516914
35.842636
32.827934
29.501869
25.896496
22.046551
17.989111
13.763248
9.409644
-14.157252
-9.354655
-4.457311
0.487647
5.432628
10.330041
15.132749
19.794519
24.270473
28.517511
32.494728
36.163811
39.489399
42.439438
44.985485
47.102985
48.771511
49.974957
50.701706
50.944740
50.701706
49.974957
48.771511
47.102985
44.985485
42.439438
39.489399
36.163811
32.494728
28.517511
24.270473
19.794519
15.132749
10.330041
-15.668041
-10.370006
-4.967443
0.487647
5.942759
11.345387
16.643526
21.786175
26.723820
31.408915
35.796337
39.843819
43.512363
46.766613
49.575199
51.911034
53.751591
55.079113
55.880791
56.148880
55.880791
55.079113
53.751591
51.911034
49.575199
46.766613
43.512363
39.843819
35.796337
31.408915
26.723820
21.786175
16.643526
11.345387
-17.334682
-11.490100
-5.530200
0.487647
6.505515
12.465476
18.310156
23.983290
29.430252
34.598595
39.438534
43.903458
47.950336
51.540180
54.638382
57.215076
59.245415
60.709812
61.594147
61.889877
61.594147
60.709812
59.245415
57.215076
54.638382
51.540180
47.950336
43.903458
39.438534
34.598595
29.430252
23.983290
18.310156
12.465476
-19.173254
-12.725741
-6.151011
0.487647
7.126324
13.701112
20.148714
26.407057
32.415878
38.117317
43.456459
48.381882
52.846130
56.806183
60.223885
63.066280
65.305977
66.921371
67.896889
68.223106
67.896889
66.921371
65.305977
63.066280
60.223885
56.806183
52.846130
48.381882
43.456459
38.117317
32.415878
26.407057
20.148714
13.701112
-21.201488
-14.088851
-6.835863
0.487647
7.811175
15.064214
22.176935
29.080854
35.709496
41.999023
47.888870
53.322296
58.246963
62.615421
66.385574
69.521088
71.991737
73.773705
74.849808
75.209663
74.849808
73.773705
71.991737
69.521088
66.385574
62.615421
58.246963
53.322296
47.888870
41.999023
35.709496
29.080854
22.176935
15.064214
-23.438951
-15.592575
-7.591364
0.487647
8.566673
16.567932
24.414383
32.030476
39.342876
46.281162
52.778515
58.772350
64.204933
69.023926
73.182892
76.641754
79.367188
81.332909
82.519981
82.916946
82.519981
81.332909
79.367188
76.641754
73.182892
69.023926
64.204933
58.772350
52.778515
46.281162
39.342876
32.030476
24.414383
16.567932
-25.907227
-17.251419
-8.424800
0.487647
9.400107
18.226768
26.882639
35.284374
43.351067
51.005035
58.172565
64.784622
70.777512
76.093513
80.681404
84.496979
87.503471
89.671906
90.981384
91.419289
90.981384
89.671906
87.503471
84.496979
80.681404
76.093513
70.777512
64.784622
58.172565
51.005035
43.351067
35.284374
26.882639
18.226768
-28.630121
-19.081387
-9.344211
0.487647
10.319516
20.056726
29.605515
38.873936
47.772732
56.216209
64.123047
71.417099
78.028107
83.892380
88.953438
93.162521
96.479065
98.871124
100.315643
100.798706
100.315643
98.871124
96.479065
93.162521
88.953438
83.892380
78.028107
71.417099
64.123047
56.216209
47.772732
38.873936
29.605515
20.056726
-31.633902
-21.100126
-10.358465
0.487647
11.333768
22.075457
32.609272
42.833782
52.650520
61.964951
70.687370
78.733765
86.026642
92.495758
98.078796
102.721970
106.380562
109.019310
110.612801
111.145676
110.612801
109.019310
106.380562
102.721970
98.078796
92.495758
86.026642
78.733765
70.687370
61.964951
52.650520
42.833782
32.609272
22.075457
-34.947540
-23.327114
-11.477346
0.487647
12.452647
24.302433
35.922890
47.202114
58.031487
68.306717
77.928841
86.805191
94.850288
101.986626
108.145493
113.267548
117.303459
120.214348
121.972176
122.560005
121.972176
120.214348
117.303459
113.267548
108.145493
101.986626
94.850288
86.805191
77.928841
68.306717
58.031487
47.202114
35.922890
24.302433
-38.603004
-25.783829
-12.711648
0.487647
13.686945
26.759134
39.578327
52.021069
63.967533
75.302673
85.917313
95.709236
104.584145
112.456543
119.250633
124.900963
129.353119
132.564224
134.503342
135.151794
134.503342
132.564224
129.353119
124.900963
119.250633
112.456543
104.584145
95.709236
85.917313
75.302673
63.967533
52.021069
39.578327
26.759134
-3.023099
-3.562444
-4.067303
-4.532828
-4.954566
6.764944
6.531841
6.235877
5.879856
5.467159
5.001717
4.487972
3.930844
3.335681
2.708212
2.054493
1.380843
0.693791
0.000000
-0.693791
-1.380843
-2.054493
-2.708212
-3.335681
-3.930844
-4.487972
-5.001717
-5.467159
-5.879856
-6.235877
-6.531841
-6.764944
-6.932983
7.463872
7.649634
7.761874
7.799521
7.762210
7.650288
7.464808
7.207522
6.880869
6.487947
6.032493
5.518850
4.951924
4.337148
3.680425
2.988076
2.266783
1.523516
0.765472
0.000000
-0.765472
-1.523516
-2.266783
-2.988076
-3.680425
-4.337148
-4.951924
-5.518850
-6.032493
-6.487947
-6.880869
-7.207522
-7.464808
-7.650288
8.235781
8.440779
8.564635
8.606166
8.564970
8.441431
8.236714
7.952758
7.592256
7.158634
6.656022
6.089215
5.463634
4.785276
4.060656
3.296749
2.500926
1.680875
0.844532
0.000000
-0.844532
-1.680875
-2.500926
-3.296749
-4.060656
-4.785276
-5.463634
-6.089215
-6.656022
-7.158634
-7.592256
-7.952758
-8.236714
-8.441431
9.087179
9.313394
9.450063
9.495878
9.450397
9.314044
9.088110
8.774735
8.376899
7.898387
7.343760
6.718316
6.028039
5.279551
4.480041
3.637208
2.759180
1.854438
0.931733
0.000000
-0.931733
-1.854438
-2.759180
-3.637208
-4.480041
-5.279551
-6.028039
-6.718316
-7.343760
-7.898387
-8.376899
-8.774735
-9.088110
-9.314044
10.026280
10.275898
10.426699
10.477240
10.427032
10.276546
10.027207
9.681385
9.242368
8.714340
8.102341
7.412219
6.650583
5.824740
4.942627
4.012737
3.044036
2.045879
1.027917
0.000000
-1.027917
-2.045879
-3.044036
-4.012737
-4.942627
-5.824740
-6.650583
-7.412219
-8.102341
-8.714340
-9.242368
-9.681385
-10.027207
-10.276546
11.062143
11.337575
11.503963
11.559716
11.504294
11.338219
11.063065
10.681451
10.197011
9.614367
8.939082
8.177618
7.337270
6.426103
5.452875
4.426958
3.358243
2.257046
1.134011
0.000000
-1.134011
-2.257046
-3.358243
-4.426958
-5.452875
-6.426103
-7.337270
-8.177618
-8.939082
-9.614367
-10.197011
-10.681451
-11.063065
-11.338219
12.204761
12.508665
12.692248
12.753750
12.692576
12.509304
12.205675
11.784580
11.250036
10.607146
9.862055
9.021896
8.094725
7.089439
6.015708
4.883868
3.704830
2.489975
1.251039
0.000000
-1.251039
-2.489975
-3.704830
-4.883868
-6.015708
-7.089439
-8.094725
-9.021896
-9.862055
-10.607146
-11.250036
-11.784580
-12.205675
-12.509304
13.465152
13.800466
14.003016
14.070859
14.003341
13.801100
13.466060
13.001415
12.411602
11.702255
10.880163
9.953198
8.930253
7.821150
6.636554
5.387873
4.087142
2.746912
1.380129
0.000000
-1.380129
-2.746912
-4.087142
-5.387873
-6.636554
-7.821150
-8.930253
-9.953198
-10.880163
-11.702255
-12.411602
-13.001415
-13.466060
-13.801100
14.855476
15.225437
15.448908
15.523746
15.449230
15.226065
14.856376
14.343692
13.692912
12.910259
12.003227
10.980508
9.851915
8.628291
7.321403
5.943835
4.508865
3.030337
1.522527
0.000000
-1.522527
-3.030337
-4.508865
-5.943835
-7.321403
-8.628291
-9.851915
-10.980508
-12.003227
-12.910259
-13.692912
-14.343692
-14.856376
-15.226065
16.389145
16.797323
17.043875
17.126429
17.044193
16.797945
16.390034
15.824358
15.106326
14.242808
13.242080
12.113733
10.868602
9.518649
8.076859
6.557117
4.974069
3.342984
1.679606
0.000000
-1.679606
-3.342984
-4.974069
-6.557117
-8.076859
-9.518649
-10.868602
-12.113733
-13.242080
-14.242808
-15.106326
-15.824358
-16.390034
-16.797945
18.080952
18.531290
18.803299
18.894365
18.803614
18.531904
18.081831
17.457697
16.665478
15.712758
14.608670
13.363807
11.990120
10.500813
8.910213
7.233636
5.487240
3.687867
1.852882
0.000000
-1.852882
-3.687867
-5.487240
-7.233636
-8.910213
-10.500813
-11.990120
-13.363807
-14.608670
-15.712758
-16.665478
-17.457697
-18.081831
-18.531904
19.947216
20.444061
20.744152
20.844608
20.744463
20.444664
19.948082
19.259464
18.385406
17.334288
16.116182
14.742785
13.227286
11.584255
9.829499
7.979916
6.053329
4.068315
2.044025
0.000000
-2.044025
-4.068315
-6.053329
-7.979916
-9.829499
-11.584255
-13.227286
-14.742785
-16.116182
-17.334288
-18.385406
-19.259464
-19.948082
-20.444664
22.005939
22.554087
22.885157
22.995972
22.885462
22.554680
22.006790
21.247038
20.282705
19.123035
17.779158
16.263971
14.592036
12.779428
10.843588
8.803156
6.677795
4.487996
2.254881
0.000000
-2.254881
-4.487996
-6.677795
-8.803156
-10.843588
-12.779428
-14.592036
-16.263971
-17.779158
-19.123035
-20.282705
-21.247038
-22.006790
-22.554680
24.276979
24.881720
25.246965
25.369207
25.247265
24.882303
24.277815
23.439592
22.375673
21.096260
19.613636
17.942038
16.097534
14.097859
11.962259
9.711298
7.366663
4.950959
2.487482
0.000000
-2.487482
-4.950959
-7.366663
-9.711298
-11.962259
-14.097859
-16.097534
-17.942038
-19.613636
-21.096260
-22.375673
-23.439592
-24.277815
-24.882303
26.782246
27.449415
27.852360
27.987206
27.852653
27.449986
26.783062
25.858276
24.684498
23.272993
21.637312
19.793173
17.758301
15.552268
13.196305
10.713100
8.126578
5.461669
2.744072
0.000000
-2.744072
-5.461669
-8.126578
-10.713100
-13.196305
-15.552268
-17.758301
-19.793173
-21.637312
-23.272993
-24.684498
-25.858276
-26.783062
-27.449986
29.545900
30.281939
30.726471
30.875221
30.726757
30.282497
29.546698
28.526421
27.231453
25.674231
23.869709
21.835232
19.590357
17.156681
14.557630
11.818228
8.964869
6.025054
3.027127
0.000000
-3.027127
-6.025054
-8.964869
-11.818228
-14.557630
-17.156681
-19.590357
-21.835232
-23.869709
-25.674231
-27.231453
-28.526421
-29.546698
-30.282497
32.594604
33.406612
33.897022
34.061111
33.897301
33.407158
32.595379
31.469761
30.041105
28.323137
26.332359
24.087912
21.611376
18.926579
16.059362
13.037340
9.889624
6.646547
3.339377
0.000000
-3.339377
-6.646547
-9.889624
-13.037340
-16.059362
-18.926579
-21.611376
-24.087912
-26.332359
-28.323137
-30.041105
-31.469761
-32.595379
-33.407158
35.957764
36.853580
37.394600
37.575607
37.394867
36.854107
35.958515
34.716690
33.140556
31.245262
29.049019
26.572943
23.840849
20.879028
17.715992
14.382196
10.909760
7.332144
3.683833
0.000000
-3.683833
-7.332144
-10.909760
-14.382196
-17.715992
-20.879028
-23.840849
-26.572943
-29.049019
-31.245262
-33.140556
-34.716690
-35.958515
-36.854107
39.667820
40.656090
41.252937
41.452614
41.253197
40.656601
39.668545
38.298527
36.559708
34.468792
32.045891
29.314295
26.300285
23.032867
19.543495
15.865769
12.035121
8.088458
4.063818
0.000000
-4.063818
-8.088458
-12.035121
-15.865769
-19.543495
-23.032867
-26.300285
-29.314295
-32.045891
-34.468792
-36.559708
-38.298527
-39.668545
-40.656601
43.760559
44.850822
45.509254
45.729523
45.509506
44.851311
43.761257
42.249825
40.331532
38.024826
35.351883
32.338409
29.013407
25.408869
21.559502
17.502371
13.276560
8.922783
4.482999
0.000000
-4.482999
-8.922783
-13.276560
-17.502371
-21.559502
-25.408869
-29.013407
-32.338409
-35.351883
-38.024826
-40.331532
-42.249825
-43.761257
-44.851311
48.275463
49.478233
50.204609
50.447590
50.204845
49.478703
48.276131
46.608696
44.492420
41.947659
38.998886
35.674465
32.006386
28.029955
23.783457
19.307785
14.646051
9.843169
4.945417
0.000000
-4.945417
-9.843169
-14.646051
-19.307785
-23.783457
-28.029955
-32.006386
-35.674465
-38.998886
-41.947659
-44.492420
-46.608696
-48.276131
-49.478703
53.256084
54.582970
55.384289
55.652332
55.384514
54.583408
53.256714
51.417183
49.082504
46.275135
43.022076
39.354630
35.308090
30.921406
26.236815
21.299431
16.156809
10.858493
5.455535
0.000000
-5.455535
-10.858493
-16.156809
-21.299431
-26.236815
-30.921406
-35.308090
-39.354630
-43.022076
-46.275135
-49.082504
-51.417183
-53.256714
-54.583408
58.750458
60.214260
61.098259
61.393948
61.098473
60.214676
58.751053
56.721676
54.146065
51.048996
47.460266
43.414413
38.950371
34.111114
28.943241
23.496515
17.823401
11.978548
6.018271
0.000000
-6.018271
-11.978548
-17.823401
-23.496515
-28.943241
-34.111114
-38.950371
-43.414413
-47.460266
-51.048996
-54.146065
-56.721676
-58.751053
-60.214676
64.811592
66.426437
67.401642
67.727821
67.401840
66.426819
64.812141
62.573334
59.731937
56.315292
52.356266
47.892967
42.968361
37.629848
31.928839
25.920235
19.661905
13.214140
6.639055
0.000000
-6.639055
-13.214140
-19.661905
-25.920235
-31.928839
-37.629848
-42.968361
-47.892967
-52.356266
-56.315292
-59.731937
-62.573334
-64.812141
-66.426819
71.497948
73.279411
74.355232
74.715057
74.355415
73.279762
71.498451
69.028610
65.894012
62.124817
57.757301
52.833500
47.400814
41.511547
35.222412
28.593966
21.690058
14.577187
7.323874
0.000000
-7.323874
-14.577187
-21.690058
-28.593966
-35.222412
-41.511547
-47.400814
-52.833500
-57.757301
-62.124817
-65.894012
-69.028610
-71.498451
-73.279762