VARIABLES="X","Y","Z","p","rho","u","v","w"
ZONE T="Element0"
Nodes=2196, Elements=1028, ZONETYPE=FEBRICK
DATAPACKING=BLOCK
VARLOCATION = ([4,5,6,7,8] = CELLCENTERED)
-0.010750
-0.026042
-0.046015
-0.070871
-0.100864
-0.136303
-0.177547
-0.225011
-0.279168
-0.340554
-0.409775
-0.487507
-0.574510
-0.671632
-0.779815
-0.900109
-1.033680
-1.181819
-1.345960
-1.527687
-1.728758
-1.951112
-2.196898
-2.468486
-2.768498
-3.099829
-3.465676
-3.869569
-4.315403
0.000000
-0.010750
-0.026042
-0.046015
-0.070871
-0.100864
-0.136303
-0.177547
-0.225011
-0.279168
-0.340554
-0.409775
-0.487507
-0.574510
-0.671632
-0.779815
-0.900109
-1.033680
-1.181819
-1.345960
-1.527687
-1.728758
-1.951112
-2.196898
-2.468486
-2.768498
-3.099829
-3.465676
-3.869569
-4.315403
0.000000
0.002497
0.009935
0.021936
0.038184
0.058427
0.082428
0.109947
0.140734
0.869938
0.832879
0.792942
0.750605
0.706341
0.660610
0.613855
0.566501
0.518955
0.471604
0.424815
0.378939
0.334312
0.291254
0.250074
0.211071
0.174531
0.140734
0.109947
0.082428
0.058427
0.038184
0.021936
0.009935
0.002497
0.002497
0.009935
0.021936
0.038184
0.058427
0.082428
0.109947
0.140734
0.869938
0.832879
0.792942
0.750605
0.706341
0.660610
0.613855
0.566501
0.518955
0.471604
0.424815
0.378939
0.334312
0.291254
0.250074
0.211071
0.174531
0.140734
0.109947
0.082428
0.058427
0.038184
0.021936
0.009935
0.002497
-0.008187
-0.000520
0.011841
0.028566
0.049410
0.074135
0.102498
0.134238
0.877103
0.840168
0.800198
0.757666
0.713046
0.666801
0.619384
0.571232
0.522765
0.474388
0.426490
0.379443
0.333605
0.289323
0.246929
0.206746
0.169082
0.134238
0.102498
0.074135
0.049410
0.028566
0.011841
-0.000520
-0.008187
-0.023378
-0.015395
-0.002550
0.014810
0.036439
0.062099
0.091539
0.124489
0.887741
0.850498
0.810052
0.766880
0.721455
0.674250
0.625728
0.576338
0.526521
0.476700
0.427286
0.378675
0.331251
0.285385
0.241436
0.199750
0.160661
0.124489
0.091539
0.062099
0.036439
0.014810
-0.002550
-0.015395
-0.023378
-0.043225
-0.034857
-0.021415
-0.003266
0.019336
0.046150
0.076916
0.111352
0.902037
0.864058
0.822698
0.778434
0.731748
0.683122
0.633032
0.581948
0.530327
0.478617
0.427253
0.376658
0.327242
0.279403
0.233529
0.189992
0.149152
0.111352
0.076916
0.046150
0.019336
-0.003266
-0.021415
-0.034857
-0.043225
-0.067933
-0.059116
-0.044966
-0.025875
-0.002106
0.026093
0.058450
0.094667
0.920189
0.881052
0.838335
0.792520
0.744102
0.693577
0.641439
0.588178
0.534275
0.480204
0.426428
0.373397
0.321552
0.271324
0.223127
0.177364
0.134421
0.094667
0.058450
0.026093
-0.002106
-0.025875
-0.044966
-0.059116
-0.067933
-0.097756
-0.088425
-0.073455
-0.053264
-0.028123
0.001705
0.035935
0.074251
0.942416
0.901696
0.857171
0.809337
0.758702
0.705780
0.651089
0.595143
0.538451
0.481516
0.424832
0.368883
0.314142
0.261073
0.210124
0.161730
0.116307
0.074251
0.035935
0.001705
-0.028123
-0.053264
-0.073455
-0.088425
-0.097756
-0.133001
-0.123088
-0.107181
-0.085719
-0.058991
-0.027273
0.009132
0.049887
0.968960
0.926226
0.879434
0.829095
0.775737
0.719899
0.662124
0.602955
0.542935
0.482600
0.422479
0.363093
0.304953
0.248558
0.194395
0.142932
0.094620
0.049887
0.009132
-0.027273
-0.058991
-0.085719
-0.107181
-0.123088
-0.133001
-0.174027
-0.163457
-0.146485
-0.123574
-0.095028
-0.061140
-0.022234
0.021326
1.000099
0.954910
0.905374
0.852024
0.795414
0.736110
0.674688
0.611726
0.547803
0.483494
0.419368
0.355988
0.293907
0.233664
0.175787
0.120785
0.069144
0.021326
-0.022234
-0.061140
-0.095028
-0.123574
-0.146485
-0.163457
-0.174027
-0.221245
-0.209938
-0.191764
-0.167209
-0.136595
-0.100235
-0.058478
-0.011715
1.036147
0.988043
0.935266
0.878374
0.817953
0.754602
0.688935
0.621571
0.553129
0.484231
0.415490
0.347516
0.280908
0.216253
0.154123
0.095070
0.039624
-0.011715
-0.058478
-0.100235
-0.136595
-0.167209
-0.191764
-0.209938
-0.221245
-0.275126
-0.262994
-0.243469
-0.217059
-0.184106
-0.144948
-0.099960
1.077460
1.025962
0.969419
0.908423
0.843596
0.775579
0.705028
0.632608
0.558988
0.484838
0.410824
0.337608
0.265842
0.196163
0.129196
0.065540
0.005772
-0.049565
-0.099960
-0.144948
-0.184106
-0.217059
-0.243469
-0.262994
-0.275126
-0.336204
-0.323149
-0.302110
-0.273615
-0.238030
-0.195718
-0.147086
1.124444
1.069041
1.008176
0.942478
0.872612
0.799266
0.723144
0.644966
0.565455
0.485337
0.405339
0.326180
0.248570
0.173205
0.100766
0.031907
-0.032743
-0.092592
-0.147086
-0.195718
-0.238030
-0.273615
-0.302110
-0.323149
-0.336204
-0.405081
-0.390996
-0.368263
-0.337433
-0.298896
-0.253043
-0.200318
1.177555
1.117706
1.051923
0.980882
0.905295
0.825905
0.743474
0.658779
0.572607
0.485749
0.398995
0.313132
0.228934
0.147164
0.068563
-0.006151
-0.076294
-0.141217
-0.200318
-0.253043
-0.298896
-0.337433
-0.368263
-0.390996
-0.405081
-0.482430
-0.467199
-0.442575
-0.409136
-0.367297
-0.317482
-0.260173
1.237309
1.172431
1.101090
1.024015
0.941973
0.855768
0.766226
0.674193
0.580526
0.486087
0.391740
0.298345
0.206751
0.117791
0.032279
-0.049002
-0.125301
-0.195911
-0.260173
-0.317482
-0.367297
-0.409136
-0.442575
-0.467199
-0.482430
-0.569007
-0.552500
-0.525772
-0.489423
-0.443899
-0.389660
-0.327231
1.304283
1.233748
1.156158
1.072302
0.983010
0.889153
0.791633
0.691370
0.589299
0.486365
0.383513
0.281685
0.181812
0.084808
-0.008435
-0.097058
-0.180240
-0.257205
-0.327231
-0.389660
-0.443899
-0.489423
-0.525772
-0.552500
-0.569007
-0.665655
-0.647730
-0.618661
-0.579073
-0.529445
-0.470278
-0.402144
1.379125
1.302251
1.217664
1.126214
1.028807
0.926391
0.819947
0.710482
0.599019
0.486594
0.374242
0.262998
0.153883
0.047901
-0.053968
-0.150782
-0.241640
-0.325690
-0.402144
-0.470278
-0.529445
-0.579073
-0.618661
