VARIABLES="X","Y","Z","p","rho","u","v","w"
ZONE T="Element0"
Nodes=2178, Elements=1021, ZONETYPE=FEBRICK
DATAPACKING=BLOCK
VARLOCATION = ([4,5,6,7,8] = CELLCENTERED)
0.140734
0.174531
0.211071
0.250074
0.291254
0.334312
0.378939
0.424815
0.471604
0.518955
0.566501
0.613855
0.660610
0.706341
0.750605
0.792942
0.832879
0.869938
0.903637
0.933498
0.959052
0.979841
0.995417
1.005317
1.008930
1.005317
0.995417
0.979841
0.959052
0.933498
0.903637
0.869938
0.140734
0.174531
0.211071
0.250074
0.291254
0.334312
0.378939
0.424815
0.471604
0.518955
0.566501
0.613855
0.660610
0.706341
0.750605
0.792942
0.832879
0.869938
0.903637
0.933498
0.959052
0.979841
0.995417
1.005317
1.008930
1.005317
0.995417
0.979841
0.959052
0.933498
0.903637
0.869938
0.134238
0.169082
0.206746
0.246929
0.289323
0.333605
0.379443
0.426490
0.474388
0.522765
0.571232
0.619384
0.666801
0.713046
0.757666
0.800198
0.840168
0.877103
0.910529
0.939982
0.965009
0.985180
1.000077
1.009297
1.012443
1.009297
1.000077
0.985180
0.965009
0.939982
0.910529
0.877103
0.124489
0.160661
0.199750
0.241436
0.285385
0.331251
0.378675
0.427286
0.476700
0.526521
0.576338
0.625728
0.674250
0.721455
0.766880
0.810052
0.850498
0.887741
0.921316
0.950767
0.975662
0.995593
1.010188
1.019118
1.022129
1.019118
1.010188
0.995593
0.975662
0.950767
0.921316
0.887741
0.111352
0.149152
0.189992
0.233529
0.279403
0.327242
0.376658
0.427253
0.478617
0.530327
0.581948
0.633032
0.683122
0.731748
0.778434
0.822698
0.864058
0.902037
0.936169
0.966008
0.991134
1.011163
1.025758
1.034643
1.037629
1.034643
1.025758
1.011163
0.991134
0.966008
0.936169
0.902037
0.094667
0.134421
0.177364
0.223127
0.271324
0.321552
0.373397
0.426428
0.480204
0.534275
0.588178
0.641439
0.693577
0.744102
0.792520
0.838335
0.881052
0.920189
0.955278
0.985876
1.011571
1.031996
1.046838
1.055852
1.058876
1.055852
1.046838
1.031996
1.011571
0.985876
0.955278
0.920189
0.074251
0.116307
0.161730
0.210124
0.261073
0.314142
0.368883
0.424832
0.481516
0.538451
0.595143
0.651089
0.705780
0.758702
0.809337
0.857171
0.901696
0.942416
0.978857
1.010573
1.037157
1.058249
1.073550
1.082830
1.085941
1.082830
1.073550
1.058249
1.037157
1.010573
0.978857
0.942416
0.049887
0.094620
0.142932
0.194395
0.248558
0.304953
0.363093
0.422479
0.482600
0.542935
0.602955
0.662124
0.719899
0.775737
0.829095
0.879434
0.926226
0.968960
1.007149
1.040339
1.068121
1.090135
1.106087
1.115755
1.118994
1.115755
1.106087
1.090135
1.068121
1.040339
1.007149
0.968960
0.021326
0.069144
0.120785
0.175787
0.233664
0.293907
0.355988
0.419368
0.483494
0.547803
0.611726
0.674688
0.736110
0.795414
0.852024
0.905374
0.954910
1.000099
1.040438
1.075459
1.104744
1.127928
1.144716
1.154884
1.158290
1.154884
1.144716
1.127928
1.104744
1.075459
1.040438
1.000099
-0.058478
-0.011715
0.039624
0.095070
0.154123
0.216253
0.280908
0.347516
0.415490
0.484231
0.553129
0.621571
0.688935
0.754602
0.817953
0.878374
0.935266
0.988043
1.036147
1.079050
1.116266
1.147363
1.171965
1.189770
1.200550
1.204160
1.200550
1.189770
1.171965
1.147363
1.116266
1.079050
1.036147
-0.099960
-0.049565
0.005772
0.065540
0.129196
0.196163
0.265842
0.337608
0.410824
0.484838
0.558988
0.632608
0.705028
0.775579
0.843596
0.908423
0.969419
1.025962
1.077460
1.123359
1.163148
1.196375
1.222649
1.241655
1.253159
1.257012
1.253159
1.241655
1.222649
1.196375
1.163148
1.123359
1.077460
-0.147086
-0.092592
-0.032743
0.031907
0.100766
0.173205
0.248570
0.326180
0.405339
0.485337
0.565455
0.644966
0.723144
0.799266
0.872612
0.942478
1.008176
1.069041
1.124444
1.173794
1.216553
1.252241
1.280451
1.300851
1.313195
1.317329
1.313195
1.300851
1.280451
1.252241
1.216553
1.173794
1.124444
-0.200318
-0.141217
-0.076294
-0.006151
0.068563
0.147164
0.228934
0.313132
0.398995
0.485749
0.572607
0.658779
0.743474
0.825905
0.905295
0.980882
1.051923
1.117706
1.177555
1.230841
1.276989
1.315491
1.345914
1.367909
1.381216
1.385671
1.381216
1.367909
1.345914
1.315491
1.276989
1.230841
1.177555
-0.260173
-0.195911
-0.125301
-0.049002
0.032279
0.117791
0.206751
0.298345
0.391740
0.486087
0.580526
0.674193
0.766226
0.855768
0.941973
1.024015
1.101090
1.172431
1.237309
1.295049
1.345036
1.386727
1.419660
1.443464
1.457863
1.462683
1.457863
1.443464
1.419660
1.386727
1.345036
1.295049
1.237309
-0.327231
-0.257205
-0.180240
-0.097058
-0.008435
0.084808
0.181812
0.281685
0.383513
0.486365
0.589299
0.691370
0.791633
0.889153
0.983010
1.072302
1.156158
1.233748
1.304283
1.367036
1.421346
1.466629
1.502391
1.528234
1.543863
1.549096
1.543863
1.528234
1.502391
1.466629
1.421346
1.367036
1.304283
-0.402144
-0.325690
-0.241640
-0.150782
-0.053968
0.047901
0.153883
0.262998
0.374242
0.486594
0.599019
0.710482
0.819947
0.926391
1.028807
1.126214
1.217664
1.302251
1.379125
1.447496
1.506652
1.555963
1.594897
1.623027
1.640038
1.645732
1.640038
1.623027
1.594897
1.555963
1.506652
1.447496
1.379125
-0.485635
-0.402029
-0.310093
-0.210691
-0.104758
0.006717
0.122697
0.242107
0.363843
0.486782
0.609787
0.731721
0.851448
0.967847
1.079814
1.186277
1.286202
1.378604
1.462557
1.537204
1.601774
1.655586
1.698066
1.728753
1.747307
1.753518
1.747307
1.728753
1.698066
1.655586
1.601774
1.537204
1.462557
-0.578511
-0.486960
-0.386259
-0.277362
-0.161293
-0.039140
0.087957
0.218816
0.352221
0.486936
0.621713
0.755299
0.886447
1.013926
1.136526
1.253074
1.362439
1.463545
1.555384
1.637025
1.707627
1.766456
1.812888
1.846425
1.866700
1.873486
1.866700
1.846425
1.812888
1.766456
1.707627
1.637025
-0.681670
-0.581301
-0.470874
-0.351437
-0.224116
-0.090108
0.049332
0.192903
0.339267
0.487063
0.634916
0.781447
0.925285
1.065076
1.199495
1.327252
1.447111
1.557895
1.658502
1.747919
1.825232
1.889640
1.940467
1.977174
1.999363
2.006789
1.999363
1.977174
1.940467
1.889640
1.825232
1.747919
-0.796108
-0.685963
-0.564754
-0.433630
-0.293832
-0.146678
0.006452
0.164123
0.324861
0.487167
0.649526
0.810421
0.968340
1.121796
1.269330
1.409529
1.541036
1.662563
1.772906
1.870957
1.955719
2.026323
2.082031
2.122258
2.146573
2.154709
2.146573
2.122258
2.082031
2.026323
1.955719
1.870957
-0.922930
-0.801957
-0.668803
-0.524733
-0.371113
-0.209393
-0.041096
0.132199
0.308866
0.487253
0.665690
0.842503
1.016031
1.184634
1.346709
1.500701
1.645123
1.778561
1.899699
2.007324
2.100348
2.177821
2.238943
2.283073
2.309746
2.318671
2.309746
2.283073
2.238943
2.177821
2.100348
2.007324
-1.063359
-0.930401
-0.784025
-0.625624
-0.456702
-0.278857
-0.093767
0.096826
0.291130
0.487323
0.683563
0.878007
1.068820
1.254199
1.432378
1.601649
1.760375
1.907009
2.040104
2.158335
2.260512
2.345596
2.412714
2.461170
2.490454
2.500252
2.490454
2.461170
2.412714
2.345596
2.260512
2.158335
-1.218751
-1.072534
-0.911531
-0.737276
-0.551425
-0.355739
-0.152069
0.057664
0.271484
0.487381
0.703323
0.917275
1.127219
1.331163
1.527165
1.713346
1.887906
2.049145
2.195475
2.325446
2.437754
2.531264
2.605020
2.658264
2.690439
2.701204
2.690439
2.658264
2.605020
2.531264
2.437754
2.325446
-1.390604
-1.229728
-1.052552
-0.860765
-0.656193
-0.440779
-0.216562
0.014338
0.249741
0.487429
0.725159
0.960689
1.191791
1.416271
1.631987
1.836872
2.028946
2.206340
2.367312
2.510269
2.633785
2.736614
2.817714
2.876254
2.911628
2.923462
2.911628
2.876254
2.817714
2.736614
2.633785
2.510269
-1.580578
-1.403499
-1.208447
-0.997282
-0.772018
-0.534796
-0.287868
-0.033570
0.225691
0.487468
0.749286
1.008670
1.263162
1.510344
1.747856
1.973419
2.184856
2.380111
2.557271
2.714587
2.850494
2.963628
3.052847
3.117243
3.156153
3.169170
3.156153
3.117243
3.052847
2.963628
2.850494
2.714587
-1.790505
-1.595524
-1.380719
-1.148143
-0.900016
-0.638698
-0.366673
-0.086521
0.199104
0.487500
0.775935
1.061679
1.342020
1.614290
1.875889
2.124305
2.357141
2.572135
2.767185
2.940370
3.089971
3.214494
3.312687
3.383554
3.426372
3.440696
3.426372
3.383554
3.312687
3.214494
3.089971
2.940370
-2.022410
-1.807654
-1.571031
-1.314804
-1.041420
-0.753485
-0.453737
-0.145024
0.169725
0.487526
0.805367
1.120231
1.429128
1.729114
2.017322
2.290985
2.547462
2.784264
2.999079
3.189795
3.354526
3.491631
3.599738
3.677755
3.724891
3.740659
3.724891
3.677755
3.599738
3.491631
3.354526
-2.278530
-2.041935
-1.781217
-1.498871
-1.197595
-0.880264
-0.549899
-0.209644
0.137270
0.487548
0.837864
1.184890
1.525326
1.855923
2.173520
2.475068
2.757656
3.018544
3.255189
3.465268
3.646710
3.797712
3.916769
4.002684
4.054589
4.071951
4.054589
4.002684
3.916769
3.797712
3.646710
-2.561336
-2.300629
-2.013307
-1.702121
-1.370047
-1.020258
-0.656086
-0.281002
0.101427
0.487565
0.873741
1.256281
1.631542
1.995941
2.345991
2.678329
2.989750
3.277236
3.537986
3.769447
3.969341
4.135690
4.266838
4.361474
4.418645
4.437769
4.418645
4.361474
4.266838
4.135690
3.969341
-3.128760
-2.873556
-2.586230
-2.269537
-1.926512
-1.560439
-1.174816
-0.773323
-0.359787
0.061851
0.487580
0.913346
1.335093
1.748802
2.150519
2.536397
2.902730
3.245983
3.562833
3.850197
4.105266
4.325532
4.508823
4.653321
4.757586
4.820571
4.841639
4.820571
4.757586
4.653321
4.508823
4.325532
-3.499469
-3.218202
-2.901492
-2.552379
-2.174211
-1.770607
-1.345429
-0.902738
-0.446759
0.018161
0.487592
0.957059
1.422087
1.878237
2.321148
2.746577
3.150435
3.528827
3.878093
4.194835
4.475962
4.718719
4.920712
5.079947
5.194840
5.264243
5.287458
5.264243
5.194840
5.079947
4.920712
4.718719
-3.908631
-3.598598
-3.249458
-2.864563
-2.447605
-2.002578
-1.533744
-1.045582
-0.542755
-0.030064
0.487602
1.005304
1.518101
2.021095
2.509475
2.978557
3.423833
3.841011
4.226054
4.575223
4.885113
5.152692
5.375329
5.550829
5.677454
5.753942
5.779525
5.753942
5.677454
5.550829
5.375329
5.152692
-4.360193
-4.018413
-3.633482
-3.209098
-2.749331
-2.258591
-1.741575
-1.203230
-0.648703
-0.083290
0.487610
1.058545
1.624063
2.178756
2.717315
3.234575
3.725563
4.185546
4.610075
4.995031
5.336666
5.631639
5.877060
6.070511
6.210083
6.294389
6.322587
6.294389
6.210083
6.070511
5.877060
5.631639
-3.082302
-2.541113
-1.970927
-1.377204
-0.765622
-0.142029
0.487616
1.117297
1.740994
2.352740
2.946676
3.517102
4.058535
4.565754
5.033859
5.458308
5.834974
6.160180
6.430743
6.644005
6.797864
6.890799
6.921882
6.890799
6.797864
6.644005
6.430743
6.160180
-1.569182
-0.894642
-0.206848
0.487622
1.182127
1.870023
2.544726
3.199768
3.828862
4.425960
4.985305
5.501493
5.969523
6.384845
6.743412
7.041719
7.276842
7.446467
7.548923
7.583190
7.548923
7.446467
7.276842
7.041719
6.743412
-1.781015
-1.037006
-0.278373
0.487626
1.253660
2.012395
2.756565
0.134238
0.169082
0.206746
0.246929
0.289323
0.333605
0.379443
0.426490
0.474388
0.522765
0.571232
0.619384
0.666801
0.713046
0.757666
0.800198
0.840168
0.877103
0.910529
0.939982
0.965009
0.985180
1.000077
1.009297
1.012443
1.009297
1.000077
0.985180
0.965009
0.939982
0.910529
0.877103
0.124489
0.160661
0.199750
0.241436
0.285385
0.331251
0.378675
0.427286
0.476700
0.526521
0.576338
0.625728
0.674250
0.721455
0.766880
0.810052
0.850498
0.887741
0.921316
0.950767
0.975662
0.995593
1.010188
1.019118
1.022129
1.019118
1.010188
0.995593
0.975662
0.950767
0.921316
0.887741
0.111352
0.149152
0.189992
0.233529
0.279403
0.327242
0.376658
0.427253
0.478617
0.530327
0.581948
0.633032
0.683122
0.731748
0.778434
0.822698
0.864058
0.902037
0.936169
0.966008
0.991134
1.011163
1.025758
1.034643
1.037629
1.034643
1.025758
1.011163
0.991134
0.966008
0.936169
0.902037
0.094667
0.134421
0.177364
0.223127
0.271324
0.321552
0.373397
0.426428
0.480204
0.534275
0.588178
0.641439
0.693577
0.744102
0.792520
0.838335
0.881052
0.920189
0.955278
0.985876
1.011571
1.031996
1.046838
1.055852
1.058876
1.055852
1.046838
1.031996
1.011571
0.985876
0.955278
0.920189
0.074251
0.116307
0.161730
0.210124
0.261073
0.314142
0.368883
0.424832
0.481516
0.538451
0.595143
0.651089
0.705780
0.758702
0.809337
0.857171
0.901696
0.942416
0.978857
1.010573
1.037157
1.058249
1.073550
1.082830
1.085941
1.082830
1.073550
1.058249
1.037157
1.010573
0.978857
0.942416
0.049887
0.094620
0.142932
0.194395
0.248558
0.304953
0.363093
0.422479
0.482600
0.542935
0.602955
0.662124
0.719899
0.775737
0.829095
0.879434
0.926226
0.968960
1.007149
1.040339
1.068121
1.090135
1.106087
1.115755
1.118994
1.115755
1.106087
1.090135
1.068121
1.040339
1.007149
0.968960
0.021326
0.069144
0.120785
0.175787
0.233664
0.293907
0.355988
0.419368
0.483494
0.547803
0.611726
0.674688
0.736110
0.795414
0.852024
0.905374
0.954910
1.000099
1.040438
1.075459
1.104744
1.127928
1.144716
1.154884
1.158290
1.154884
1.144716
1.127928
1.104744
1.075459
1.040438
1.000099
-0.058478
-0.011715
0.039624
0.095070
0.154123
0.216253
0.280908
0.347516
0.415490
0.484231
0.553129
0.621571
0.688935
0.754602
0.817953
0.878374
0.935266
0.988043
1.036147
1.079050
1.116266
1.147363
1.171965
1.189770
1.200550
1.204160
1.200550
1.189770
1.171965
1.147363
1.116266
1.079050
1.036147
-0.099960
-0.049565
0.005772
0.065540
0.129196
0.196163
0.265842
0.337608
0.410824
0.484838
0.558988
0.632608
0.705028
0.775579
0.843596
0.908423
0.969419
1.025962
1.077460
1.123359
1.163148
1.196375
1.222649
1.241655
1.253159
1.257012
1.253159
1.241655
1.222649
1.196375
1.163148
1.123359
1.077460
-0.147086
-0.092592
-0.032743
0.031907
0.100766
0.173205
0.248570
0.326180
0.405339
0.485337
0.565455
0.644966
0.723144
0.799266
0.872612
0.942478
1.008176
1.069041
1.124444
1.173794
1.216553
1.252241
1.280451
1.300851
1.313195
1.317329
1.313195
1.300851
1.280451
1.252241
1.216553
1.173794
1.124444
-0.200318
-0.141217
-0.076294
-0.006151
0.068563
0.147164
0.228934
0.313132
0.398995
0.485749
0.572607
0.658779
0.743474
0.825905
0.905295
0.980882
1.051923
1.117706
1.177555
1.230841
1.276989
1.315491
1.345914
1.367909
1.381216
1.385671
1.381216
1.367909
1.345914
1.315491
1.276989
1.230841
1.177555
-0.260173
-0.195911
-0.125301
-0.049002
0.032279
0.117791
0.206751
0.298345
0.391740
0.486087
0.580526
0.674193
0.766226
0.855768
0.941973
1.024015
1.101090
1.172431
1.237309
1.295049
1.345036
1.386727
1.419660
1.443464
1.457863
1.462683
1.457863
1.443464
1.419660
1.386727
1.345036
1.295049
1.237309
-0.327231
-0.257205
-0.180240
-0.097058
-0.008435
0.084808
0.181812
0.281685
0.383513
0.486365
0.589299
0.691370
0.791633
0.889153
0.983010
1.072302
1.156158
1.233748
1.304283
1.367036
1.421346
1.466629
1.502391
1.528234
1.543863
1.549096
1.543863
1.528234
1.502391
1.466629
1.421346
1.367036
1.304283
-0.402144
-0.325690
-0.241640
-0.150782
-0.053968
0.047901
0.153883
0.262998
0.374242
0.486594
0.599019
0.710482
0.819947
0.926391
1.028807
1.126214
1.217664
1.302251
1.379125
1.447496
1.506652
1.555963
1.594897
1.623027
1.640038
1.645732
1.640038
1.623027
1.594897
1.555963
1.506652
1.447496
1.379125
-0.485635
-0.402029
-0.310093
-0.210691
-0.104758
0.006717
0.122697
0.242107
0.363843
0.486782
0.609787
0.731721
0.851448
0.967847
1.079814
1.186277
1.286202
1.378604
1.462557
1.537204
1.601774
1.655586
1.698066
1.728753
1.747307
1.753518
1.747307
1.728753
1.698066
1.655586
1.601774
1.537204
1.462557
-0.578511
-0.486960
-0.386259
-0.277362
-0.161293
-0.039140
0.087957
0.218816
0.352221
0.486936
0.621713
0.755299
0.886447
1.013926
1.136526
1.253074
1.362439
1.463545
1.555384
1.637025
1.707627
1.766456
1.812888
1.846425
1.866700
1.873486
1.866700
1.846425
1.812888
1.766456
1.707627
1.637025
-0.681670
-0.581301
-0.470874
-0.351437
-0.224116
-0.090108
0.049332
0.192903
0.339267
0.487063
0.634916
0.781447
0.925285
1.065076
1.199495
1.327252
1.447111
1.557895
1.658502
1.747919
1.825232
1.889640
1.940467
1.977174
1.999363
2.006789
1.999363
1.977174
1.940467
1.889640
1.825232
1.747919
-0.796108
-0.685963
-0.564754
-0.433630
-0.293832
-0.146678
0.006452
0.164123
0.324861
0.487167
0.649526
0.810421
0.968340
1.121796
1.269330
1.409529
1.541036
1.662563
1.772906
1.870957
1.955719
2.026323
2.082031
2.122258
2.146573
2.154709
2.146573
2.122258
2.082031
2.026323
1.955719
1.870957
-0.922930
-0.801957
-0.668803
-0.524733
-0.371113
-0.209393
-0.041096
0.132199
0.308866
0.487253
0.665690
0.842503
1.016031
1.184634
1.346709
1.500701
1.645123
1.778561
1.899699
2.007324
2.100348
2.177821
2.238943
2.283073
2.309746
2.318671
2.309746
2.283073
2.238943
2.177821
2.100348
2.007324
-1.063359
-0.930401
-0.784025
-0.625624
-0.456702
-0.278857
-0.093767
0.096826
0.291130
0.487323
0.683563
0.878007
1.068820
1.254199
1.432378
1.601649
1.760375
1.907009
2.040104
2.158335
2.260512
2.345596
2.412714
2.461170
2.490454
2.500252
2.490454
2.461170
2.412714
2.345596
2.260512
2.158335
-1.218751
-1.072534
-0.911531
-0.737276
-0.551425
-0.355739
-0.152069
0.057664
0.271484
0.487381
0.703323
0.917275
1.127219
1.331163
1.527165
1.713346
1.887906
2.049145
2.195475
2.325446
2.437754
2.531264
2.605020
2.658264
2.690439
2.701204
2.690439
2.658264
2.605020
2.531264
2.437754
2.325446
-1.390604
-1.229728
-1.052552
-0.860765
-0.656193
-0.440779
-0.216562
0.014338
0.249741
0.487429
0.725159
0.960689
1.191791
1.416271
1.631987
1.836872
2.028946
2.206340
2.367312
2.510269
2.633785
2.736614
2.817714
2.876254
2.911628
2.923462
2.911628
2.876254
2.817714
2.736614
2.633785
2.510269
-1.580578
-1.403499
-1.208447
-0.997282
-0.772018
-0.534796
-0.287868
-0.033570
0.225691
0.487468
0.749286
1.008670
1.263162
1.510344
1.747856
1.973419
2.184856
2.380111
2.557271
2.714587
2.850494
2.963628
3.052847
3.117243
3.156153
3.169170
3.156153
3.117243
3.052847
2.963628
2.850494
2.714587
-1.790505
-1.595524
-1.380719
-1.148143
-0.900016
-0.638698
-0.366673
-0.086521
0.199104
0.487500
0.775935
1.061679
1.342020
1.614290
1.875889
2.124305
2.357141
2.572135
2.767185
2.940370
3.089971
3.214494
3.312687
3.383554
3.426372
3.440696
3.426372
3.383554
3.312687
3.214494
3.089971
2.940370
-2.022410
-1.807654
-1.571031
-1.314804
-1.041420
-0.753485
-0.453737
-0.145024
0.169725
0.487526
0.805367
1.120231
1.429128
1.729114
2.017322
2.290985
2.547462
2.784264
2.999079
3.189795
3.354526
3.491631
3.599738
3.677755
3.724891
3.740659
3.724891
3.677755
3.599738
3.491631
3.354526
-2.278530
-2.041935
-1.781217
-1.498871
-1.197595
-0.880264
-0.549899
-0.209644
0.137270
0.487548
0.837864
1.184890
1.525326
1.855923
2.173520
2.475068
2.757656
3.018544
3.255189
3.465268
3.646710
3.797712
3.916769
4.002684
4.054589
4.071951
4.054589
4.002684
3.916769
3.797712
3.646710
-2.561336
-2.300629
-2.013307
-1.702121
-1.370047
-1.020258
-0.656086
-0.281002
0.101427
0.487565
0.873741
1.256281
1.631542
1.995941
2.345991
2.678329
2.989750
3.277236
3.537986
3.769447
3.969341
4.135690
4.266838
4.361474
4.418645
4.437769
4.418645
4.361474
4.266838
4.135690
3.969341
-3.128760
-2.873556
-2.586230
-2.269537
-1.926512
-1.560439
-1.174816
-0.773323
-0.359787
0.061851
0.487580
0.913346
1.335093
1.748802
2.150519
2.536397
2.902730
3.245983
3.562833
3.850197
4.105266
4.325532
4.508823
4.653321
4.757586
4.820571
4.841639
4.820571
4.757586
4.653321
4.508823
4.325532
-3.499469
-3.218202
-2.901492
-2.552379
-2.174211
-1.770607
-1.345429
-0.902738
-0.446759
0.018161
0.487592
0.957059
1.422087
1.878237
2.321148
2.746577
3.150435
3.528827
3.878093
4.194835
4.475962
4.718719
4.920712
5.079947
5.194840
5.264243
5.287458
5.264243
5.194840
5.079947
4.920712
4.718719
-3.908631
-3.598598
-3.249458
-2.864563
-2.447605
-2.002578
-1.533744
-1.045582
-0.542755
-0.030064
0.487602
1.005304
1.518101
2.021095
2.509475
2.978557
3.423833
3.841011
4.226054
4.575223
4.885113
5.152692
5.375329
5.550829
5.677454
5.753942
5.779525
5.753942
5.677454
5.550829
5.375329
5.152692
-4.360193
-4.018413
-3.633482
-3.209098
-2.749331
-2.258591
-1.741575
-1.203230
-0.648703
-0.083290
0.487610
1.058545
1.624063
2.178756
2.717315
3.234575
3.725563
4.185546
4.610075
4.995031
5.336666
5.631639
5.877060
6.070511
6.210083
6.294389
6.322587
6.294389
6.210083
6.070511
5.877060
5.631639
-3.082302
-2.541113
-1.970927
-1.377204
-0.765622
-0.142029
0.487616
1.117297
1.740994
2.352740
2.946676
3.517102
4.058535
4.565754
5.033859
5.458308
5.834974
6.160180
6.430743
6.644005
6.797864
6.890799
6.921882
6.890799
6.797864
6.644005
6.430743
6.160180
-1.569182
-0.894642
-0.206848
0.487622
1.182127
1.870023
2.544726
3.199768
3.828862
4.425960
4.985305
5.501493
5.969523
6.384845
6.743412
7.041719
7.276842
7.446467
7.548923
7.583190
7.548923
7.446467
7.276842
7.041719
6.743412
-1.781015
-1.037006
-0.278373
0.487626
1.253660
2.012395
2.756565
0.052462
0.055651
0.057970
0.059414
0.060000
0.059761
0.058745
0.057014
0.054641
0.051705
0.048290
0.044480
0.040361
0.036019
0.031540
0.027010
0.022517
0.018156
0.014023
0.010224
0.006864
0.004054
0.001901
0.000512
0.000000
-0.000512
-0.001901
-0.004054
-0.006864
-0.010224
-0.014023
-0.018156
0.052462
0.055651
0.057970
0.059414
0.060000
0.059761
0.058745
0.057014
0.054641
0.051705
0.048290
0.044480
0.040361
0.036019
0.031540
0.027010
0.022517
0.018156
0.014023
0.010224
0.006864
0.004054
0.001901
0.000512
0.000000
-0.000512
-0.001901
-0.004054
-0.006864
-0.010224
-0.014023
-0.018156
0.085223
0.091537
0.096689
0.100655
0.103432
0.105032
0.105487
0.104840
0.103149
0.100479
0.096900
0.092488
0.087319
0.081476
0.075041
0.068101
0.060749
0.053086
0.045220
0.037266
0.029344
0.021575
0.014066
0.006889
0.000000
-0.006889
-0.014066
-0.021575
-0.029344
-0.037266
-0.045220
-0.053086
0.119020
0.128563
0.136632
0.143182
0.148185
0.151637
0.153548
0.153946
0.152874
0.150382
0.146532
0.141390
0.135030
0.127531
0.118977
0.109461
0.099085
0.087962
0.076214
0.063975
0.051385
0.038584
0.025701
0.012830
0.000000
-0.012830
-0.025701
-0.038584
-0.051385
-0.063975
-0.076214
-0.087962
0.154149
0.167048
0.178139
0.187352
0.194638
0.199969
0.203338
0.204756
0.204250
0.201860
0.197639
0.191647
0.183956
0.174646
0.163809
0.151545
0.137971
0.123215
0.107421
0.090747
0.073362
0.055437
0.037140
0.018620
0.000000
-0.018620
-0.037140
-0.055437
-0.073362
-0.090747
-0.107421
-0.123215
0.190923
0.207329
0.221571
0.233551
0.243195
0.250452
0.255296
0.257721
0.257741
0.255384
0.250696
0.243736
0.234574
0.223297
0.210004
0.194810
0.177847
0.159268
0.139242
0.117957
0.095617
0.072437
0.048632
0.024417
0.000000
-0.024417
-0.048632
-0.072437
-0.095617
-0.117957
-0.139242
-0.159268
0.229674
0.249769
0.267317
0.282190
0.294288
0.303536
0.309888
0.313322
0.313835
0.311450
0.306205
0.298158
0.287382
0.273973
0.258040
0.239717
0.219158
0.196541
0.172067
0.145961
0.118467
0.089847
0.060376
0.030332
0.000000
-0.030332
-0.060376
-0.089847
-0.118467
-0.145961
-0.172067
-0.196541
0.270760
0.294755
0.315792
0.333711
0.348381
0.359706
0.367615
0.372070
0.373056
0.370586
0.364694
0.355439
0.342900
0.327181
0.308411
0.286741
0.262352
0.235453
0.206281
0.175101
0.142205
0.107908
0.072541
0.036453
0.000000
-0.036453
-0.072541
-0.107908
-0.142205
-0.175101
-0.206281
-0.235453
0.314560
0.342703
0.367443
0.388587
0.405974
0.419480
0.429013
0.434515
0.435961
0.433353
0.426724
0.416135
0.401673
0.383455
0.361628
0.336369
0.307888
0.276428
0.242267
0.205716
0.167117
0.126843
0.085286
0.042863
0.000000
-0.042863
-0.085286
-0.126843
-0.167117
-0.205716
-0.242267
-0.276428
0.325298
0.361484
0.394058
0.422751
0.447330
0.467604
0.483417
0.494656
0.501245
0.503144
0.500350
0.492892
0.480836
0.464279
0.443354
0.418229
0.389110
0.356239
0.319900
0.280415
0.238144
0.193486
0.146872
0.098761
0.049637
0.000000
-0.049637
-0.098761
-0.146872
-0.193486
-0.238144
-0.280415
-0.319900
0.370555
0.411972
0.449303
0.482234
0.510492
0.533849
0.552120
0.565167
0.572894
0.575248
0.572219
0.563836
0.550170
0.531331
0.507469
0.478779
0.445496
0.407901
0.366321
0.321126
0.272732
0.221597
0.168215
0.113115
0.056851
0.000000
-0.056851
-0.113115
-0.168215
-0.221597
-0.272732
-0.321126
-0.366321
0.419443
0.466502
0.508960
0.546455
0.578670
0.605337
0.626240
0.641215
0.650144
0.652962
0.649651
0.640242
0.624812
0.603485
0.576433
0.543878
0.506092
0.463396
0.416164
0.364821
0.309841
0.251745
0.191099
0.128501
0.064584
0.000000
-0.064584
-0.128501
-0.191099
-0.251745
-0.309841
-0.364821
-0.416164
0.472425
0.525590
0.573596
0.616024
0.652511
0.682748
0.706484
0.723525
0.733734
0.737032
0.733393
0.722849
0.705485
0.681444
0.650922
0.614170
0.571500
0.523278
0.469930
0.411941
0.349847
0.284241
0.215759
0.145080
0.072915
0.000000
-0.072915
-0.145080
-0.215759
-0.284241
-0.349847
-0.411941
-0.469930
0.530006
0.589800
0.643824
0.691602
0.732719
0.766821
0.793618
0.812887
0.824467
0.828265
0.824250
0.812454
0.792974
0.765969
0.731663
0.690344
0.642363
0.588139
0.528155
0.462957
0.393154
0.319411
0.242446
0.163019
0.081929
0.000000
-0.081929
-0.163019
-0.242446
-0.319411
-0.393154
-0.462957
-0.528155
0.592736
0.659745
0.720317
0.773913
0.820061
0.858359
0.888477
0.910157
0.923215
0.927541
0.923100
0.909924
0.888124
0.857880
0.819445
0.773144
0.719378
0.658619
0.591413
0.518375
0.440191
0.357606
0.271425
0.182498
0.091717
0.000000
-0.091717
-0.182498
-0.271425
-0.357606
-0.440191
-0.518375
-0.591413
0.661213
0.736093
0.803806
0.863744
0.915375
0.958242
0.991971
1.016269
1.030927
1.035817
1.030895
1.016203
0.991859
0.958069
0.915119
0.863378
0.803296
0.735407
0.660324
0.578740
0.491422
0.399204
0.302983
0.203710
0.102375
0.000000
-0.102375
-0.203710
-0.302983
-0.399204
-0.491422
-0.578740
-0.660324
0.736095
0.819577
0.895092
0.961958
1.019575
1.067429
1.105096
1.132246
1.148640
1.154134
1.148678
1.132315
1.105181
1.067507
1.019616
0.961922
0.894934
0.819251
0.735562
0.644642
0.547348
0.444611
0.337431
0.226863
0.114008
0.000000
-0.114008
-0.226863
-0.337431
-0.444611
-0.547348
-0.644642
-0.735562
0.818101
0.910997
0.995051
1.069497
1.133662
1.186968
1.228940
1.259203
1.277489
1.283636
1.277584
1.259384
1.229187
1.187254
1.133947
1.069733
0.995182
0.910968
0.817860
0.716724
0.608516
0.494272
0.375104
0.252183
0.126729
0.000000
-0.126729
-0.252183
-0.375104
-0.494272
-0.608516
-0.716724
0.908017
1.011233
1.104645
1.187397
1.258734
1.318012
1.364694
1.398363
1.418716
1.425569
1.418858
1.398636
1.365075
1.318467
1.259219
1.187855
1.105014
1.011447
0.908016
0.795685
0.675519
0.548670
0.416369
0.279917
0.140664
0.000000
-0.140664
-0.279917
-0.416369
-0.548670
-0.675519
-0.795685
1.006709
1.121249
1.224927
1.316790
1.395995
1.461821
1.513668
1.551068
1.573682
1.581304
1.573862
1.551415
1.514158
1.462415
1.396644
1.317431
1.225491
1.121662
1.006905
0.882293
0.749009
0.608332
0.461628
0.310334
0.155946
0.000000
-0.155946
-0.310334
-0.461628
-0.608332
-0.749009
-0.882293
1.115126
1.242103
1.357057
1.458924
1.546768
1.619781
1.677296
1.718789
1.743881
1.752343
1.744093
1.719198
1.677875
1.620489
1.547551
1.459715
1.357780
1.242680
1.115483
0.977385
0.829697
0.673837
0.511318
0.343730
0.172725
0.000000
-0.172725
-0.343730
-0.511318
-0.673837
-0.829697
-0.977385
1.234313
1.374959
1.502305
1.615168
1.712503
1.793414
1.857155
1.903143
1.930956
1.940336
1.931193
1.903603
1.857808
1.794216
1.713397
1.616081
1.503159
1.375670
1.234802
1.081882
0.918364
0.745819
0.565921
0.380427
0.191163
0.000000
-0.191163
-0.380427
-0.565921
-0.745819
-0.918364
-1.081882
1.365417
1.521098
1.662072
1.787027
1.894800
1.984394
2.054981
2.105909
2.136709
2.147095
2.136967
2.106410
2.055693
1.985272
1.895783
1.788040
1.663033
1.521918
1.366014
1.196793
1.015867
0.824974
0.625964
0.420780
0.211437
0.000000
-0.211437
-0.420780
-0.625964
-0.824974
-1.015867
-1.196793
1.509701
1.681926
1.837898
1.976157
2.095415
2.194562
2.272679
2.329041
2.363126
2.374617
2.363401
2.329575
2.273440
2.195503
2.096472
1.977253
1.838946
1.682836
1.510387
1.323230
1.123148
0.912066
0.692029
0.465180
0.233744
0.000000
-0.233744
-0.465180
-0.692029
-0.912066
-1.123148
-1.323230
1.668557
1.858996
2.031477
2.184383
2.316283
2.425945
2.512349
2.574691
2.612391
2.625094
2.612680
2.575253
2.513151
2.426936
2.317399
2.185545
2.032596
1.859979
1.669315
1.462412
1.241244
1.007938
0.764752
0.514055
0.258300
0.000000
-0.258300
-0.514055
-0.764752
-1.007938
-1.241244
-1.462412
1.843515
2.054013
2.244676
2.413711
2.559532
2.680774
2.776304
2.845229
2.886907
2.900945
2.887207
2.845813
2.777137
2.681807
2.560697
2.414927
2.245852
2.055055
1.844333
1.615684
1.371295
1.113514
0.844837
0.567878
0.285342
0.000000
-0.285342
-0.567878
-0.844837
-1.113514
-1.371295
-1.615684
2.036263
2.268859
2.479551
2.666353
2.827510
2.961507
3.067088
3.143265
3.189323
3.204829
3.189632
3.143866
3.067947
2.962572
2.828713
2.667613
2.480773
2.269948
2.037128
1.784526
1.514555
1.229814
0.933057
0.627167
0.315130
0.000000
-0.315130
-0.627167
-0.933057
-1.229814
-1.514555
2.248660
2.505604
2.738366
2.944746
3.122800
3.270850
3.387506
3.471672
3.522556
3.539678
3.522872
3.472288
3.388386
3.271942
3.124035
2.946041
2.739626
2.506732
2.249563
1.970565
1.672408
1.357960
1.030262
0.692495
0.347952
0.000000
-0.347952
-0.692495
-1.030262
-1.357960
-1.672408
2.482752
2.766532
3.023617
3.251575
3.448250
3.611789
3.740649
3.833618
3.889820
3.908722
3.890142
3.834245
3.741546
3.612901
3.449510
3.252897
3.024907
2.767692
2.483687
2.175599
1.846377
1.499189
1.137391
0.764493
0.384125
0.000000
-0.384125
-0.764493
-1.137391
-1.499189
-1.846377
2.400948
2.740799
3.054160
3.338056
3.589797
3.807000
3.987610
4.129923
4.232595
4.294658
4.315522
4.294985
4.233232
4.130832
3.988739
3.808279
3.591141
3.339370
3.055344
2.741758
2.401604
2.038140
1.654863
1.255477
0.843854
0.423998
0.000000
-0.423998
-0.843854
-1.255477
-1.654863
-2.038140
2.650086
3.025289
3.371261
3.684716
3.962677
4.202509
4.401940
4.559083
4.672452
4.740974
4.764000
4.741305
4.673094
4.560002
4.403081
4.203803
3.964038
3.686048
3.372464
3.026267
2.650762
2.249547
1.826485
1.385661
0.931346
0.467955
0.000000
-0.467955
-0.931346
-1.385661
-1.826485
-2.249547
2.924785
3.338964
3.720894
4.066939
4.373810
4.638593
4.858774
5.032268
5.157430
5.233075
5.258483
5.233408
5.158078
5.033194
4.859925
4.639897
4.375184
4.068285
3.722112
3.339958
2.925476
2.482639
2.015709
1.529196
1.027811
0.516421
0.000000
-0.516421
-1.027811
-1.529196
-2.015709
-2.482639
3.227694
3.684853
4.106431
4.488414
4.827163
5.119457
5.362519
5.554042
5.692209
5.775707
5.803741
5.776041
5.692860
5.554973
5.363676
5.120769
4.828545
4.489769
4.107660
3.685858
3.228396
2.739663
2.224363
1.687470
1.134181
0.569863
0.000000
-0.569863
-1.134181
-1.687470
-2.224363
-2.739663
5.327106
5.649740
5.918035
6.129439
6.281946
6.374104
6.405035
6.374439
6.282598
6.130373
5.919195
5.651057
5.328494
4.954566
4.532828